   12   12    1    2
  0.1544087E+02  0.6577300E-09  0.3854000E-09  0.7309600E-09  0.1000000E-15
  1.000000000000000E-004
  CAR 
 unknown system                          
    116    200     96
 
  0.0000000E+00  0.0000000E+00  0.0000000E+00  0.8230453E-03
      1        -42.823416      -42.823416   1.000000   1.000000
      2        -42.823392      -42.823392   1.000000   1.000000
      3        -42.822205      -42.822205   1.000000   1.000000
      4        -42.822190      -42.822190   1.000000   1.000000
      5        -42.742967      -42.742967   1.000000   1.000000
      6        -42.742880      -42.742880   1.000000   1.000000
      7        -38.870527      -38.870527   1.000000   1.000000
      8        -38.870444      -38.870444   1.000000   1.000000
      9        -38.827655      -38.827655   1.000000   1.000000
     10        -38.827630      -38.827630   1.000000   1.000000
     11        -38.806740      -38.806740   1.000000   1.000000
     12        -38.806711      -38.806711   1.000000   1.000000
     13         -5.804601       -5.804601   1.000000   1.000000
     14         -4.444200       -4.444200   1.000000   1.000000
     15         -4.349587       -4.349587   1.000000   1.000000
     16         -4.297876       -4.297876   1.000000   1.000000
     17          0.183486        0.183486   1.000000   1.000000
     18          0.991692        0.991692   1.000000   1.000000
     19          1.251505        1.251505   1.000000   1.000000
     20          2.054590        2.054590   1.000000   1.000000
     21          2.359304        2.359304   1.000000   1.000000
     22          2.783752        2.783752   1.000000   1.000000
     23          2.800632        2.800632   1.000000   1.000000
     24          2.983551        2.983551   1.000000   1.000000
     25          2.994806        2.994806   1.000000   1.000000
     26          3.016202        3.016202   1.000000   1.000000
     27          3.306913        3.306913   1.000000   1.000000
     28          3.376206        3.376206   1.000000   1.000000
     29          3.446284        3.446284   1.000000   1.000000
     30          3.607535        3.607535   1.000000   1.000000
     31          3.670459        3.670459   1.000000   1.000000
     32          3.793104        3.793104   1.000000   1.000000
     33          3.883797        3.883797   1.000000   1.000000
     34          3.887618        3.887618   1.000000   1.000000
     35          3.968353        3.968353   1.000000   1.000000
     36          4.003409        4.003409   1.000000   1.000000
     37          4.116256        4.116256   1.000000   1.000000
     38          4.288095        4.288095   1.000000   1.000000
     39          4.391256        4.391256   1.000000   1.000000
     40          4.412026        4.412026   1.000000   1.000000
     41          4.465006        4.465006   1.000000   1.000000
     42          4.514130        4.514130   1.000000   1.000000
     43          4.545879        4.545879   1.000000   1.000000
     44          4.676380        4.676380   1.000000   1.000000
     45          4.716065        4.716065   1.000000   1.000000
     46          4.791960        4.791960   1.000000   1.000000
     47          4.834772        4.834772   1.000000   1.000000
     48          4.841692        4.841692   1.000000   1.000000
     49          4.986406        4.986406   1.000000   1.000000
     50          5.022904        5.022904   1.000000   1.000000
     51          5.187387        5.187387   1.000000   1.000000
     52          5.374298        5.374298   1.000000   1.000000
     53          5.876272        5.876272   1.000000   1.000000
     54          6.757815        6.757815   1.000000   1.000000
     55          6.831420        6.831420   1.000000   1.000000
     56          6.872803        6.872803   1.000000   1.000000
     57          7.219170        7.219170   1.000000   1.000000
     58          7.322281        7.322281   1.000000   1.000000
     59          7.846144        7.846144   0.000000   0.000000
     60          7.964367        7.964367   0.000000   0.000000
     61          8.083320        8.083320   0.000000   0.000000
     62          8.183548        8.183548   0.000000   0.000000
     63          8.342150        8.342150   0.000000   0.000000
     64          8.614401        8.614401   0.000000   0.000000
     65          8.656030        8.656030   0.000000   0.000000
     66          9.120786        9.120786   0.000000   0.000000
     67          9.194234        9.194234   0.000000   0.000000
     68          9.691354        9.691354   0.000000   0.000000
     69          9.988594        9.988594   0.000000   0.000000
     70          9.992587        9.992587   0.000000   0.000000
     71         10.383654       10.383654   0.000000   0.000000
     72         10.704933       10.704933   0.000000   0.000000
     73         11.641960       11.641960   0.000000   0.000000
     74         12.160303       12.160303   0.000000   0.000000
     75         12.163133       12.163133   0.000000   0.000000
     76         12.816491       12.816491   0.000000   0.000000
     77         13.057859       13.057859   0.000000   0.000000
     78         13.344592       13.344592   0.000000   0.000000
     79         13.443430       13.443430   0.000000   0.000000
     80         13.822571       13.822571   0.000000   0.000000
     81         13.846397       13.846397   0.000000   0.000000
     82         14.033037       14.033037   0.000000   0.000000
     83         14.140122       14.140122   0.000000   0.000000
     84         15.164631       15.164631   0.000000   0.000000
     85         15.339219       15.339219   0.000000   0.000000
     86         15.502761       15.502761   0.000000   0.000000
     87         15.578063       15.578063   0.000000   0.000000
     88         15.701028       15.701028   0.000000   0.000000
     89         15.741841       15.741841   0.000000   0.000000
     90         16.576488       16.576488   0.000000   0.000000
     91         17.225451       17.225451   0.000000   0.000000
     92         17.728331       17.728331   0.000000   0.000000
     93         17.997954       17.997954   0.000000   0.000000
     94         18.120238       18.120238   0.000000   0.000000
     95         18.951277       18.951276   0.000000   0.000000
     96         19.229667       19.229664   0.000000   0.000000
 
  0.1111111E+00  0.0000000E+00  0.0000000E+00  0.1646091E-02
      1        -42.823443      -42.823443   1.000000   1.000000
      2        -42.823383      -42.823383   1.000000   1.000000
      3        -42.822215      -42.822215   1.000000   1.000000
      4        -42.822177      -42.822177   1.000000   1.000000
      5        -42.742980      -42.742980   1.000000   1.000000
      6        -42.742855      -42.742855   1.000000   1.000000
      7        -38.870531      -38.870531   1.000000   1.000000
      8        -38.870443      -38.870443   1.000000   1.000000
      9        -38.827665      -38.827665   1.000000   1.000000
     10        -38.827612      -38.827612   1.000000   1.000000
     11        -38.806744      -38.806744   1.000000   1.000000
     12        -38.806716      -38.806716   1.000000   1.000000
     13         -5.772598       -5.772598   1.000000   1.000000
     14         -4.437067       -4.437067   1.000000   1.000000
     15         -4.415050       -4.415050   1.000000   1.000000
     16         -4.296424       -4.296424   1.000000   1.000000
     17          0.259916        0.259916   1.000000   1.000000
     18          0.904869        0.904869   1.000000   1.000000
     19          1.147922        1.147922   1.000000   1.000000
     20          2.203074        2.203074   1.000000   1.000000
     21          2.422147        2.422147   1.000000   1.000000
     22          2.782328        2.782328   1.000000   1.000000
     23          2.798772        2.798772   1.000000   1.000000
     24          2.919591        2.919591   1.000000   1.000000
     25          2.954737        2.954737   1.000000   1.000000
     26          3.075492        3.075492   1.000000   1.000000
     27          3.319891        3.319891   1.000000   1.000000
     28          3.427974        3.427974   1.000000   1.000000
     29          3.446374        3.446374   1.000000   1.000000
     30          3.626547        3.626547   1.000000   1.000000
     31          3.627514        3.627514   1.000000   1.000000
     32          3.828008        3.828008   1.000000   1.000000
     33          3.874846        3.874846   1.000000   1.000000
     34          3.887874        3.887874   1.000000   1.000000
     35          3.934164        3.934164   1.000000   1.000000
     36          4.026417        4.026417   1.000000   1.000000
     37          4.117070        4.117070   1.000000   1.000000
     38          4.292135        4.292135   1.000000   1.000000
     39          4.390889        4.390889   1.000000   1.000000
     40          4.407936        4.407936   1.000000   1.000000
     41          4.438477        4.438477   1.000000   1.000000
     42          4.532046        4.532046   1.000000   1.000000
     43          4.541951        4.541951   1.000000   1.000000
     44          4.597472        4.597472   1.000000   1.000000
     45          4.718782        4.718782   1.000000   1.000000
     46          4.746313        4.746313   1.000000   1.000000
     47          4.802361        4.802361   1.000000   1.000000
     48          4.959419        4.959419   1.000000   1.000000
     49          4.976045        4.976045   1.000000   1.000000
     50          5.087971        5.087971   1.000000   1.000000
     51          5.242983        5.242983   1.000000   1.000000
     52          5.412135        5.412135   1.000000   1.000000
     53          5.894797        5.894797   1.000000   1.000000
     54          6.702260        6.702260   1.000000   1.000000
     55          6.703086        6.703086   1.000000   1.000000
     56          6.898043        6.898043   1.000000   1.000000
     57          7.271267        7.271267   1.000000   1.000000
     58          7.327330        7.327330   1.000000   1.000000
     59          7.669699        7.669699   0.000000   0.000000
     60          8.002207        8.002207   0.000000   0.000000
     61          8.149762        8.149762   0.000000   0.000000
     62          8.171084        8.171084   0.000000   0.000000
     63          8.371575        8.371575   0.000000   0.000000
     64          8.647322        8.647322   0.000000   0.000000
     65          8.705704        8.705704   0.000000   0.000000
     66          9.140206        9.140206   0.000000   0.000000
     67          9.272334        9.272334   0.000000   0.000000
     68          9.675315        9.675315   0.000000   0.000000
     69          9.848854        9.848854   0.000000   0.000000
     70          9.923734        9.923734   0.000000   0.000000
     71         10.253611       10.253611   0.000000   0.000000
     72         10.578991       10.578991   0.000000   0.000000
     73         11.649805       11.649805   0.000000   0.000000
     74         12.168878       12.168878   0.000000   0.000000
     75         12.336749       12.336749   0.000000   0.000000
     76         12.625372       12.625372   0.000000   0.000000
     77         12.927581       12.927581   0.000000   0.000000
     78         13.061753       13.061753   0.000000   0.000000
     79         13.546341       13.546341   0.000000   0.000000
     80         13.624620       13.624620   0.000000   0.000000
     81         13.652252       13.652252   0.000000   0.000000
     82         13.987103       13.987103   0.000000   0.000000
     83         14.751323       14.751323   0.000000   0.000000
     84         14.855622       14.855622   0.000000   0.000000
     85         15.386498       15.386498   0.000000   0.000000
     86         15.609330       15.609330   0.000000   0.000000
     87         15.812206       15.812206   0.000000   0.000000
     88         16.090639       16.090639   0.000000   0.000000
     89         16.254808       16.254808   0.000000   0.000000
     90         16.884130       16.884130   0.000000   0.000000
     91         17.308254       17.308254   0.000000   0.000000
     92         17.764878       17.764878   0.000000   0.000000
     93         17.810894       17.810894   0.000000   0.000000
     94         18.074651       18.074651   0.000000   0.000000
     95         18.942829       18.942829   0.000000   0.000000
     96         19.141762       19.141763   0.000000   0.000000
 
  0.2222222E+00  0.0000000E+00  0.0000000E+00  0.1646091E-02
      1        -42.823450      -42.823450   1.000000   1.000000
      2        -42.823379      -42.823379   1.000000   1.000000
      3        -42.822211      -42.822211   1.000000   1.000000
      4        -42.822163      -42.822163   1.000000   1.000000
      5        -42.742978      -42.742978   1.000000   1.000000
      6        -42.742846      -42.742846   1.000000   1.000000
      7        -38.870527      -38.870527   1.000000   1.000000
      8        -38.870443      -38.870443   1.000000   1.000000
      9        -38.827663      -38.827663   1.000000   1.000000
     10        -38.827599      -38.827599   1.000000   1.000000
     11        -38.806743      -38.806743   1.000000   1.000000
     12        -38.806718      -38.806718   1.000000   1.000000
     13         -5.677903       -5.677903   1.000000   1.000000
     14         -4.590819       -4.590819   1.000000   1.000000
     15         -4.413259       -4.413259   1.000000   1.000000
     16         -4.297820       -4.297820   1.000000   1.000000
     17          0.408158        0.408158   1.000000   1.000000
     18          0.721814        0.721814   1.000000   1.000000
     19          1.050883        1.050883   1.000000   1.000000
     20          2.387331        2.387331   1.000000   1.000000
     21          2.611848        2.611848   1.000000   1.000000
     22          2.762759        2.762759   1.000000   1.000000
     23          2.792788        2.792788   1.000000   1.000000
     24          2.804012        2.804012   1.000000   1.000000
     25          2.925558        2.925558   1.000000   1.000000
     26          3.160935        3.160935   1.000000   1.000000
     27          3.339946        3.339946   1.000000   1.000000
     28          3.446668        3.446668   1.000000   1.000000
     29          3.529751        3.529751   1.000000   1.000000
     30          3.564180        3.564180   1.000000   1.000000
     31          3.676195        3.676195   1.000000   1.000000
     32          3.799548        3.799548   1.000000   1.000000
     33          3.844727        3.844727   1.000000   1.000000
     34          3.873022        3.873022   1.000000   1.000000
     35          3.953278        3.953278   1.000000   1.000000
     36          4.067277        4.067277   1.000000   1.000000
     37          4.117847        4.117847   1.000000   1.000000
     38          4.293550        4.293550   1.000000   1.000000
     39          4.374124        4.374124   1.000000   1.000000
     40          4.388567        4.388567   1.000000   1.000000
     41          4.437939        4.437939   1.000000   1.000000
     42          4.456401        4.456401   1.000000   1.000000
     43          4.496989        4.496989   1.000000   1.000000
     44          4.562800        4.562800   1.000000   1.000000
     45          4.729441        4.729441   1.000000   1.000000
     46          4.730608        4.730608   1.000000   1.000000
     47          4.823769        4.823769   1.000000   1.000000
     48          4.953197        4.953197   1.000000   1.000000
     49          5.034875        5.034875   1.000000   1.000000
     50          5.236573        5.236573   1.000000   1.000000
     51          5.407221        5.407221   1.000000   1.000000
     52          5.516768        5.516768   1.000000   1.000000
     53          5.936144        5.936144   1.000000   1.000000
     54          6.464292        6.464292   1.000000   1.000000
     55          6.573879        6.573879   1.000000   1.000000
     56          6.968741        6.968741   1.000000   1.000000
     57          7.305230        7.305230   1.000000   1.000000
     58          7.394661        7.394661   1.000000   1.000000
     59          7.463738        7.463738   0.053126   0.053126
     60          7.963502        7.963502   0.000000   0.000000
     61          8.136378        8.136378   0.000000   0.000000
     62          8.153266        8.153266   0.000000   0.000000
     63          8.459300        8.459300   0.000000   0.000000
     64          8.707870        8.707870   0.000000   0.000000
     65          8.825016        8.825016   0.000000   0.000000
     66          9.202645        9.202645   0.000000   0.000000
     67          9.449850        9.449850   0.000000   0.000000
     68          9.491118        9.491118   0.000000   0.000000
     69          9.633181        9.633181   0.000000   0.000000
     70          9.687959        9.687959   0.000000   0.000000
     71         10.006558       10.006558   0.000000   0.000000
     72         10.331599       10.331599   0.000000   0.000000
     73         11.662521       11.662521   0.000000   0.000000
     74         12.154101       12.154101   0.000000   0.000000
     75         12.301695       12.301695   0.000000   0.000000
     76         12.542645       12.542645   0.000000   0.000000
     77         12.601025       12.601025   0.000000   0.000000
     78         12.672271       12.672271   0.000000   0.000000
     79         13.422800       13.422800   0.000000   0.000000
     80         13.470470       13.470470   0.000000   0.000000
     81         14.076372       14.076372   0.000000   0.000000
     82         14.275340       14.275340   0.000000   0.000000
     83         14.377050       14.377050   0.000000   0.000000
     84         15.001750       15.001750   0.000000   0.000000
     85         15.892366       15.892366   0.000000   0.000000
     86         15.911742       15.911742   0.000000   0.000000
     87         16.441877       16.441877   0.000000   0.000000
     88         16.791469       16.791469   0.000000   0.000000
     89         16.929290       16.929290   0.000000   0.000000
     90         17.185277       17.185277   0.000000   0.000000
     91         17.310053       17.310053   0.000000   0.000000
     92         17.581019       17.581019   0.000000   0.000000
     93         18.051017       18.051017   0.000000   0.000000
     94         18.328843       18.328843   0.000000   0.000000
     95         18.949097       18.949096   0.000000   0.000000
     96         18.972183       18.972184   0.000000   0.000000
 
  0.3333333E+00  0.0000000E+00  0.0000000E+00  0.1646091E-02
      1        -42.823457      -42.823457   1.000000   1.000000
      2        -42.823391      -42.823391   1.000000   1.000000
      3        -42.822204      -42.822204   1.000000   1.000000
      4        -42.822162      -42.822162   1.000000   1.000000
      5        -42.742985      -42.742985   1.000000   1.000000
      6        -42.742853      -42.742853   1.000000   1.000000
      7        -38.870538      -38.870538   1.000000   1.000000
      8        -38.870454      -38.870454   1.000000   1.000000
      9        -38.827655      -38.827655   1.000000   1.000000
     10        -38.827597      -38.827597   1.000000   1.000000
     11        -38.806761      -38.806761   1.000000   1.000000
     12        -38.806724      -38.806724   1.000000   1.000000
     13         -5.524905       -5.524905   1.000000   1.000000
     14         -4.827403       -4.827403   1.000000   1.000000
     15         -4.382385       -4.382385   1.000000   1.000000
     16         -4.305357       -4.305357   1.000000   1.000000
     17          0.423883        0.423883   1.000000   1.000000
     18          0.558005        0.558005   1.000000   1.000000
     19          1.232254        1.232254   1.000000   1.000000
     20          2.330556        2.330556   1.000000   1.000000
     21          2.678228        2.678228   1.000000   1.000000
     22          2.744854        2.744854   1.000000   1.000000
     23          2.784230        2.784230   1.000000   1.000000
     24          2.912983        2.912983   1.000000   1.000000
     25          2.919499        2.919499   1.000000   1.000000
     26          3.257996        3.257996   1.000000   1.000000
     27          3.349793        3.349793   1.000000   1.000000
     28          3.447698        3.447698   1.000000   1.000000
     29          3.513924        3.513924   1.000000   1.000000
     30          3.619829        3.619829   1.000000   1.000000
     31          3.716240        3.716240   1.000000   1.000000
     32          3.718955        3.718955   1.000000   1.000000
     33          3.798832        3.798832   1.000000   1.000000
     34          3.835399        3.835399   1.000000   1.000000
     35          4.042375        4.042375   1.000000   1.000000
     36          4.082660        4.082660   1.000000   1.000000
     37          4.139285        4.139285   1.000000   1.000000
     38          4.275813        4.275813   1.000000   1.000000
     39          4.334788        4.334788   1.000000   1.000000
     40          4.337941        4.337941   1.000000   1.000000
     41          4.398351        4.398351   1.000000   1.000000
     42          4.451974        4.451974   1.000000   1.000000
     43          4.461486        4.461486   1.000000   1.000000
     44          4.555910        4.555910   1.000000   1.000000
     45          4.724396        4.724396   1.000000   1.000000
     46          4.748219        4.748219   1.000000   1.000000
     47          4.833649        4.833649   1.000000   1.000000
     48          4.983346        4.983346   1.000000   1.000000
     49          5.051983        5.051983   1.000000   1.000000
     50          5.422561        5.422561   1.000000   1.000000
     51          5.598977        5.598977   1.000000   1.000000
     52          5.684273        5.684273   1.000000   1.000000
     53          5.980749        5.980749   1.000000   1.000000
     54          6.298360        6.298360   1.000000   1.000000
     55          6.423986        6.423986   1.000000   1.000000
     56          7.065631        7.065631   1.000000   1.000000
     57          7.209950        7.209950   1.000000   1.000000
     58          7.352220        7.352220   1.000000   1.000000
     59          7.541365        7.541365   0.000000   0.000000
     60          7.893972        7.893972   0.000000   0.000000
     61          8.084009        8.084009   0.000000   0.000000
     62          8.091907        8.091907   0.000000   0.000000
     63          8.508100        8.508100   0.000000   0.000000
     64          8.757218        8.757218   0.000000   0.000000
     65          8.883145        8.883145   0.000000   0.000000
     66          9.174164        9.174164   0.000000   0.000000
     67          9.255393        9.255393   0.000000   0.000000
     68          9.263118        9.263118   0.000000   0.000000
     69          9.620830        9.620830   0.000000   0.000000
     70          9.636868        9.636868   0.000000   0.000000
     71          9.762488        9.762488   0.000000   0.000000
     72         10.146377       10.146377   0.000000   0.000000
     73         11.666199       11.666199   0.000000   0.000000
     74         11.950038       11.950038   0.000000   0.000000
     75         12.229222       12.229222   0.000000   0.000000
     76         12.328702       12.328702   0.000000   0.000000
     77         12.419487       12.419487   0.000000   0.000000
     78         12.515160       12.515160   0.000000   0.000000
     79         13.330455       13.330455   0.000000   0.000000
     80         13.867443       13.867443   0.000000   0.000000
     81         13.939408       13.939408   0.000000   0.000000
     82         14.642729       14.642729   0.000000   0.000000
     83         14.808342       14.808342   0.000000   0.000000
     84         15.050770       15.050770   0.000000   0.000000
     85         16.091129       16.091129   0.000000   0.000000
     86         16.195510       16.195510   0.000000   0.000000
     87         16.745109       16.745109   0.000000   0.000000
     88         16.777361       16.777361   0.000000   0.000000
     89         17.153062       17.153062   0.000000   0.000000
     90         17.396155       17.396155   0.000000   0.000000
     91         17.670344       17.670344   0.000000   0.000000
     92         17.911776       17.911776   0.000000   0.000000
     93         18.196804       18.196804   0.000000   0.000000
     94         18.602940       18.602940   0.000000   0.000000
     95         18.846151       18.846151   0.000000   0.000000
     96         18.874462       18.874462   0.000000   0.000000
 
  0.4444444E+00  0.0000000E+00  0.0000000E+00  0.1646091E-02
      1        -42.823442      -42.823442   1.000000   1.000000
      2        -42.823413      -42.823413   1.000000   1.000000
      3        -42.822204      -42.822204   1.000000   1.000000
      4        -42.822167      -42.822167   1.000000   1.000000
      5        -42.742988      -42.742988   1.000000   1.000000
      6        -42.742863      -42.742863   1.000000   1.000000
      7        -38.870551      -38.870551   1.000000   1.000000
      8        -38.870457      -38.870457   1.000000   1.000000
      9        -38.827656      -38.827656   1.000000   1.000000
     10        -38.827602      -38.827602   1.000000   1.000000
     11        -38.806774      -38.806774   1.000000   1.000000
     12        -38.806724      -38.806724   1.000000   1.000000
     13         -5.321816       -5.321816   1.000000   1.000000
     14         -5.081950       -5.081950   1.000000   1.000000
     15         -4.351056       -4.351056   1.000000   1.000000
     16         -4.321346       -4.321346   1.000000   1.000000
     17          0.372237        0.372237   1.000000   1.000000
     18          0.463380        0.463380   1.000000   1.000000
     19          1.606810        1.606810   1.000000   1.000000
     20          2.031092        2.031092   1.000000   1.000000
     21          2.701188        2.701188   1.000000   1.000000
     22          2.733727        2.733727   1.000000   1.000000
     23          2.778034        2.778034   1.000000   1.000000
     24          2.909639        2.909639   1.000000   1.000000
     25          3.088451        3.088451   1.000000   1.000000
     26          3.334709        3.334709   1.000000   1.000000
     27          3.344033        3.344033   1.000000   1.000000
     28          3.452901        3.452901   1.000000   1.000000
     29          3.481345        3.481345   1.000000   1.000000
     30          3.630802        3.630802   1.000000   1.000000
     31          3.679108        3.679108   1.000000   1.000000
     32          3.716697        3.716697   1.000000   1.000000
     33          3.785354        3.785354   1.000000   1.000000
     34          3.814318        3.814318   1.000000   1.000000
     35          4.109859        4.109859   1.000000   1.000000
     36          4.117946        4.117946   1.000000   1.000000
     37          4.149372        4.149372   1.000000   1.000000
     38          4.230953        4.230953   1.000000   1.000000
     39          4.265980        4.265980   1.000000   1.000000
     40          4.319619        4.319619   1.000000   1.000000
     41          4.400904        4.400904   1.000000   1.000000
     42          4.417590        4.417590   1.000000   1.000000
     43          4.494814        4.494814   1.000000   1.000000
     44          4.529489        4.529489   1.000000   1.000000
     45          4.721297        4.721297   1.000000   1.000000
     46          4.766553        4.766553   1.000000   1.000000
     47          4.830596        4.830596   1.000000   1.000000
     48          5.020572        5.020572   1.000000   1.000000
     49          5.057527        5.057527   1.000000   1.000000
     50          5.477070        5.477070   1.000000   1.000000
     51          5.741068        5.741068   1.000000   1.000000
     52          5.922999        5.922999   1.000000   1.000000
     53          6.085164        6.085164   1.000000   1.000000
     54          6.165353        6.165353   1.000000   1.000000
     55          6.304881        6.304881   1.000000   1.000000
     56          7.080576        7.080576   1.000000   1.000000
     57          7.142843        7.142843   1.000000   1.000000
     58          7.374648        7.374648   1.000000   1.000000
     59          7.650083        7.650083   0.000000   0.000000
     60          7.790019        7.790019   0.000000   0.000000
     61          8.007226        8.007226   0.000000   0.000000
     62          8.065841        8.065841   0.000000   0.000000
     63          8.517527        8.517527   0.000000   0.000000
     64          8.753014        8.753014   0.000000   0.000000
     65          8.782029        8.782029   0.000000   0.000000
     66          8.958490        8.958490   0.000000   0.000000
     67          9.126679        9.126679   0.000000   0.000000
     68          9.295474        9.295474   0.000000   0.000000
     69          9.582545        9.582545   0.000000   0.000000
     70          9.587681        9.587681   0.000000   0.000000
     71          9.815377        9.815377   0.000000   0.000000
     72          9.999955        9.999955   0.000000   0.000000
     73         11.686050       11.686050   0.000000   0.000000
     74         11.783976       11.783976   0.000000   0.000000
     75         12.247549       12.247549   0.000000   0.000000
     76         12.292685       12.292685   0.000000   0.000000