 
             +---------------------------------------------------+
             |                                                   |
             |                   WANNIER90                       |
             |                                                   |
             +---------------------------------------------------+
             |                                                   |
             |        Welcome to the Maximally-Localized         |
             |        Generalized Wannier Functions code         |
             |            http://www.wannier.org                 |
             |                                                   |
             |                                                   |
             |  Wannier90 Developer Group:                       |
             |    Giovanni Pizzi    (EPFL)                       |
             |    Valerio Vitale    (Cambridge)                  |
             |    David Vanderbilt  (Rutgers University)         |
             |    Nicola Marzari    (EPFL)                       |
             |    Ivo Souza         (Universidad del Pais Vasco) |
             |    Arash A. Mostofi  (Imperial College London)    |
             |    Jonathan R. Yates (University of Oxford)       |
             |                                                   |
             |  For the full list of Wannier90 3.x authors,      |
             |  please check the code documentation and the      |
             |  README on the GitHub page of the code            |
             |                                                   |
             |                                                   |
             |  Please cite                                      |
             |                                                   |
             |  [ref] "Wannier90 as a community code:            |
             |        new features and applications",            |
             |        G. Pizzi et al., J. Phys. Cond. Matt. 32,  |
             |        165902 (2020).                             |
             |        http://doi.org/10.1088/1361-648X/ab51ff    |
             |                                                   |
             |  in any publications arising from the use of      |
             |  this code. For the method please cite            |
             |                                                   |
             |  [ref] "Maximally Localized Generalised Wannier   |
             |         Functions for Composite Energy Bands"     |
             |         N. Marzari and D. Vanderbilt              |
             |         Phys. Rev. B 56 12847 (1997)              |
             |                                                   |
             |  [ref] "Maximally Localized Wannier Functions     |
             |         for Entangled Energy Bands"               |
             |         I. Souza, N. Marzari and D. Vanderbilt    |
             |         Phys. Rev. B 65 035109 (2001)             |
             |                                                   |
             |                                                   |
             | Copyright (c) 1996-2020                           |
             |        The Wannier90 Developer Group and          |
             |        individual contributors                    |
             |                                                   |
             |      Release: 3.1.0        5th March    2020      |
             |                                                   |
             | This program is free software; you can            |
             | redistribute it and/or modify it under the terms  |
             | of the GNU General Public License as published by |
             | the Free Software Foundation; either version 2 of |
             | the License, or (at your option) any later version|
             |                                                   |
             | This program is distributed in the hope that it   |
             | will be useful, but WITHOUT ANY WARRANTY; without |
             | even the implied warranty of MERCHANTABILITY or   |
             | FITNESS FOR A PARTICULAR PURPOSE. See the GNU     |
             | General Public License for more details.          |
             |                                                   |
             | You should have received a copy of the GNU General|
             | Public License along with this program; if not,   |
             | write to the Free Software Foundation, Inc.,      |
             | 675 Mass Ave, Cambridge, MA 02139, USA.           |
             |                                                   |
             +---------------------------------------------------+
             |    Execution started on 18Apr2023 at 15:41:38     |
             +---------------------------------------------------+
 
 ******************************************************************************
 * -> Using CODATA 2006 constant values                                       *
 *    (http://physics.nist.gov/cuu/Constants/index.html)                      *
 * -> Using Bohr value from CODATA                                            *
 ******************************************************************************
 

 Running in parallel on  48 CPUs

 
                                    ------
                                    SYSTEM
                                    ------
 
                              Lattice Vectors (Ang)
                    a_1     6.577300   0.000000   0.000000
                    a_2     0.000000   3.854000   0.000000
                    a_3     0.000000   0.000000   7.309600
 
                   Unit Cell Volume:     185.29042  (Ang^3)
 
                        Reciprocal-Space Vectors (Ang^-1)
                    b_1     0.955283   0.000000   0.000000
                    b_2     0.000000   1.630302   0.000000
                    b_3     0.000000   0.000000   0.859580
  
 *----------------------------------------------------------------------------*
 |   Site       Fractional Coordinate          Cartesian Coordinate (Ang)     |
 +----------------------------------------------------------------------------+
 | Mn   1   0.54348   0.25000   0.32756   |    3.57460   0.96350   2.39431    |
 | Mn   2   0.95652   0.75000   0.82756   |    6.29135   2.89050   6.04911    |
 | Mn   3   0.45652   0.75000   0.67244   |    3.00270   2.89050   4.91529    |
 | Mn   4   0.04348   0.25000   0.17244   |    0.28595   0.96350   1.26049    |
 | Cu   1   0.37885   0.75000   0.05460   |    2.49181   2.89050   0.39907    |
 | Cu   2   0.62115   0.25000   0.94540   |    4.08549   0.96350   6.91053    |
 | Cu   3   0.87885   0.75000   0.44540   |    5.78046   2.89050   3.25573    |
 | Cu   4   0.12115   0.25000   0.55460   |    0.79684   0.96350   4.05387    |
 | As   1   0.76012   0.75000   0.12811   |    4.99956   2.89050   0.93643    |
 | As   2   0.23988   0.25000   0.87189   |    1.57774   0.96350   6.37317    |
 | As   3   0.26012   0.75000   0.37189   |    1.71091   2.89050   2.71837    |
 | As   4   0.73988   0.25000   0.62811   |    4.86639   0.96350   4.59123    |
 *----------------------------------------------------------------------------*
                                ------------
                                K-POINT GRID
                                ------------
  
             Grid size =  9 x 15 x  9      Total points = 1215
  
  
 *---------------------------------- MAIN ------------------------------------*
 |  Number of Wannier Functions               :                12             |
 |  Number of Objective Wannier Functions     :                12             |
 |  Number of input Bloch states              :                16             |
 |  Output verbosity (1=low, 5=high)          :                 1             |
 |  Timing Level (1=low, 5=high)              :                 1             |
 |  Optimisation (0=memory, 3=speed)          :                 3             |
 |  Length Unit                               :               Ang             |
 |  Post-processing setup (write *.nnkp)      :                 F             |
 |  Using Gamma-only branch of algorithms     :                 F             |
 *----------------------------------------------------------------------------*
 *------------------------------- WANNIERISE ---------------------------------*
 |  Total number of iterations                :            100000             |
 |  Number of CG steps before reset           :                 5             |
 |  Trial step length for line search         :             2.000             |
 |  Convergence tolerence                     :         0.100E-09             |
 |  Convergence window                        :                -1             |
 |  Iterations between writing output         :              1000             |
 |  Iterations between backing up to disk     :               100             |
 |  Write r^2_nm to file                      :                 F             |
 |  Write xyz WF centres to file              :                 T             |
 |  Write on-site energies <0n|H|0n> to file  :                 F             |
 |  Use guiding centre to control phases      :                 F             |
 |  Use phases for initial projections        :                 F             |
 *----------------------------------------------------------------------------*
 *------------------------------- DISENTANGLE --------------------------------*
 |  Using band disentanglement                :                 T             |
 |  Total number of iterations                :            100000             |
 |  Mixing ratio                              :             0.500             |
 |  Convergence tolerence                     :         1.000E-10             |
 |  Convergence window                        :                 3             |
 *----------------------------------------------------------------------------*
 *-------------------------------- PLOTTING ----------------------------------*
 |  Plotting Hamiltonian in WF basis          :                 T             |
 *----------------------------------------------------------------------------*
 Time to read parameters        0.064 (sec)

 *---------------------------------- K-MESH ----------------------------------*
 +----------------------------------------------------------------------------+
 |                    Distance to Nearest-Neighbour Shells                    |
 |                    ------------------------------------                    |
 |          Shell             Distance (Ang^-1)          Multiplicity         |
 |          -----             -----------------          ------------         |
 |             1                   0.095509                      2            |
 |             2                   0.106143                      2            |
 |             3                   0.108687                      2            |
 |             4                   0.142787                      4            |
 |             5                   0.144689                      4            |
 |             6                   0.151918                      4            |
 |             7                   0.179446                      8            |
 |             8                   0.191018                      2            |
 |             9                   0.212285                      2            |
 |            10                   0.217374                      2            |
 |            11                   0.218527                      4            |
 |            12                   0.219774                      4            |
 |            13                   0.232781                      4            |
 |            14                   0.237431                      4            |
 |            15                   0.238491                      4            |
 |            16                   0.241904                      4            |
 |            17                   0.244063                      8            |
 |            18                   0.256904                      8            |
 |            19                   0.260076                      8            |
 |            20                   0.285574                      4            |
 |            21                   0.286527                      2            |
 |            22                   0.289377                      4            |
 |            23                   0.303836                      4            |
 |            24                   0.305555                      4            |
 |            25                   0.305558                      8            |
 |            26                   0.306448                      4            |
 |            27                   0.308229                      8            |
 |            28                   0.318428                      2            |
 |            29                   0.318494                      8            |
 |            30                   0.324309                      8            |
 |            31                   0.326060                      2            |
 |            32                   0.332443                      4            |
 |            33                   0.336466                      4            |
 |            34                   0.339761                      4            |
 |            35                   0.342902                      4            |
 |            36                   0.349759                      8            |
 +----------------------------------------------------------------------------+
 | The b-vectors are chosen automatically                                     |
 | The following shells are used:   1,  2,  3                                 |
 +----------------------------------------------------------------------------+
 |                        Shell   # Nearest-Neighbours                        |
 |                        -----   --------------------                        |
 |                          1               2                                 |
 |                          2               2                                 |
 |                          3               2                                 |
 +----------------------------------------------------------------------------+
 | Completeness relation is fully satisfied [Eq. (B1), PRB 56, 12847 (1997)]  |
 +----------------------------------------------------------------------------+
 |                  b_k Vectors (Ang^-1) and Weights (Ang^2)                  |
 |                  ----------------------------------------                  |
 |            No.         b_k(x)      b_k(y)      b_k(z)        w_b           |
 |            ---        --------------------------------     --------        |
 |             1         0.000000    0.000000    0.095509    54.812866        |
 |             2         0.000000    0.000000   -0.095509    54.812866        |
 |             3         0.106143    0.000000    0.000000    44.380336        |
 |             4        -0.106143    0.000000    0.000000    44.380336        |
 |             5         0.000000    0.108687    0.000000    42.326875        |
 |             6         0.000000   -0.108687    0.000000    42.326875        |
 +----------------------------------------------------------------------------+
 |                           b_k Directions (Ang^-1)                          |
 |                           -----------------------                          |
 |            No.           x           y           z                         |
 |            ---        --------------------------------                     |
 |             1         0.000000    0.000000    0.095509                     |
 |             2         0.106143    0.000000    0.000000                     |
 |             3         0.000000    0.108687    0.000000                     |
 +----------------------------------------------------------------------------+
  
 Time to get kmesh              0.419 (sec)
 *============================================================================*
 |                              MEMORY ESTIMATE                               |
 |         Maximum RAM allocated during each phase of the calculation         |
 *============================================================================*
 |                        Disentanglement           55.13 Mb                  |
 |                            Wannierise:           50.15 Mb                  |
 |                          plot_wannier:           50.15 Mb                  |
 *----------------------------------------------------------------------------*
  
 Starting a new Wannier90 calculation ...


 Reading overlaps from wannier90.1.mmn    : File generated by VASP: unknown system

 Reading projections from wannier90.1.amn : File generated by VASP: unknown system

 Time to read overlaps          1.389 (sec)

 *------------------------------- DISENTANGLE --------------------------------*
 +----------------------------------------------------------------------------+
 |                              Energy  Windows                               |
 |                              ---------------                               |
 |                   Outer:    5.11400  to    9.20300  (eV)                   |
 |                   Inner:    5.92300  to    8.59100  (eV)                   |
 +----------------------------------------------------------------------------+
   Number of target bands to extract:   12

                   Unitarised projection of Wannier functions                  
                   ------------------------------------------                  
   A_mn = <psi_m|g_n> --> S = A.A^+ --> U = S^-1/2.A
   In dis_project... done
   Using an inner window (linner = T)
   In dis_proj_froz... done

                   Extraction of optimally-connected subspace                  
                   ------------------------------------------                  
 +---------------------------------------------------------------------+<-- DIS
 |  Iter     Omega_I(i-1)      Omega_I(i)      Delta (frac.)    Time   |<-- DIS
 +---------------------------------------------------------------------+<-- DIS
       1     295.55756433     284.22269815       3.988E-02      0.00    <-- DIS
       2     275.68955709     258.99579943       6.446E-02      0.00    <-- DIS
       3     262.51126648     248.58565956       5.602E-02      0.01    <-- DIS
       4     252.72396428     241.96628784       4.446E-02      0.01    <-- DIS
       5     245.13380259     237.70260580       3.126E-02      0.02    <-- DIS
       6     240.32989335     234.54028249       2.468E-02      0.02    <-- DIS
       7     236.31556171     231.64516115       2.016E-02      0.03    <-- DIS
       8     233.07570193     229.21658939       1.684E-02      0.03    <-- DIS
       9     230.14961514     227.12606435       1.331E-02      0.03    <-- DIS
      10     227.68692246     224.96409180       1.210E-02      0.04    <-- DIS
      11     225.55591983     223.27720317       1.021E-02      0.04    <-- DIS
      12     223.79011395     221.48225429       1.042E-02      0.05    <-- DIS
      13     221.93429902     220.02535540       8.676E-03      0.05    <-- DIS
      14     220.48513959     218.71884446       8.076E-03      0.06    <-- DIS
      15     218.93791937     217.49176438       6.649E-03      0.06    <-- DIS
      16     217.79053172     216.33304869       6.737E-03      0.06    <-- DIS
      17     216.66571415     215.20793891       6.774E-03      0.07    <-- DIS
      18     215.55590584     214.22000256       6.236E-03      0.07    <-- DIS
      19     214.51866993     213.14137694       6.462E-03      0.08    <-- DIS
      20     213.45526418     212.08948533       6.440E-03      0.08    <-- DIS
      21     212.40911290     211.05274775       6.427E-03      0.08    <-- DIS
      22     211.30480862     210.21593471       5.180E-03      0.09    <-- DIS
      23     210.46165542     209.40926794       5.026E-03      0.09    <-- DIS
      24     209.76236027     208.74349180       4.881E-03      0.10    <-- DIS
      25     209.02189263     208.14249460       4.225E-03      0.10    <-- DIS
      26     208.36825602     207.58322436       3.782E-03      0.10    <-- DIS
      27     207.77110938     206.91864881       4.120E-03      0.11    <-- DIS
      28     207.08326471     206.20233288       4.272E-03      0.11    <-- DIS
      29     206.27218720     205.21865341       5.134E-03      0.12    <-- DIS
      30     205.47648811     204.55461031       4.507E-03      0.12    <-- DIS
      31     204.80653968     204.01634778       3.873E-03      0.12    <-- DIS
      32     204.23517845     203.50420038       3.592E-03      0.13    <-- DIS
      33     203.70689375     202.91975434       3.879E-03      0.13    <-- DIS
      34     203.15133187     202.23471623       4.532E-03      0.14    <-- DIS
      35     202.53757722     201.50031839       5.148E-03      0.14    <-- DIS
      36     201.87148378     200.75306539       5.571E-03      0.14    <-- DIS
      37     201.18220499     200.08190769       5.499E-03      0.15    <-- DIS
      38     200.52119848     199.52338734       5.001E-03      0.15    <-- DIS
      39     199.92697279     199.06970465       4.306E-03      0.16    <-- DIS
      40     199.41300085     198.68931950       3.642E-03      0.16    <-- DIS
      41     198.97165267     198.36052059       3.081E-03      0.16    <-- DIS
      42     198.59043922     198.07059056       2.625E-03      0.17    <-- DIS
      43     198.25787366     197.81072087       2.261E-03      0.17    <-- DIS
      44     197.96447084     197.57463708       1.973E-03      0.18    <-- DIS
      45     197.70250114     197.35762534       1.747E-03      0.18    <-- DIS
      46     197.46562524     197.15558761       1.573E-03      0.18    <-- DIS
      47     197.24841583     196.96412795       1.443E-03      0.19    <-- DIS
      48     197.04567965     196.77758077       1.362E-03      0.19    <-- DIS
      49     196.85163718     196.58866848       1.338E-03      0.20    <-- DIS
      50     196.65956018     196.39124246       1.366E-03      0.20    <-- DIS
      51     196.46340693     196.18596538       1.414E-03      0.20    <-- DIS
      52     196.26140966     195.98020413       1.435E-03      0.21    <-- DIS
      53     196.05716635     195.78114913       1.410E-03      0.21    <-- DIS
      54     195.85638947     195.59253059       1.349E-03      0.22    <-- DIS
      55     195.66362054     195.41558807       1.269E-03      0.22    <-- DIS
      56     195.48133661     195.25032347       1.183E-03      0.22    <-- DIS
      57     195.31040528     195.09614990       1.098E-03      0.23    <-- DIS
      58     195.15072785     194.95221694       1.018E-03      0.23    <-- DIS
      59     195.00170429     194.81759198       9.450E-04      0.23    <-- DIS
      60     194.86251385     194.69136074       8.791E-04      0.24    <-- DIS
      61     194.73227238     194.57267695       8.202E-04      0.24    <-- DIS
      62     194.61011616     194.46078243       7.679E-04      0.25    <-- DIS
      63     194.49524398     194.35501121       7.215E-04      0.25    <-- DIS
      64     194.38693541     194.25478588       6.803E-04      0.25    <-- DIS
      65     194.28455597     194.15961036       6.435E-04      0.26    <-- DIS
      66     194.18755498     194.06906096       6.106E-04      0.26    <-- DIS
      67     194.09545950     193.98277701       5.809E-04      0.27    <-- DIS
      68     194.00786609     193.90045157       5.540E-04      0.27    <-- DIS
      69     193.92443178     193.82182296       5.294E-04      0.27    <-- DIS
      70     193.84486505     193.74666736       5.068E-04      0.28    <-- DIS
      71     193.76891732     193.67479263       4.860E-04      0.28    <-- DIS
      72     193.69637553     193.60603333       4.666E-04      0.29    <-- DIS
      73     193.62705576     193.54024688       4.485E-04      0.29    <-- DIS
      74     193.56079805     193.47731027       4.315E-04      0.29    <-- DIS
      75     193.49746229     193.41711725       4.154E-04      0.30    <-- DIS
      76     193.43692482     193.35957549       4.000E-04      0.30    <-- DIS
      77     193.37907573     193.30460364       3.853E-04      0.31    <-- DIS
      78     193.32381635     193.25212816       3.710E-04      0.31    <-- DIS
      79     193.27105703     193.20208019       3.570E-04      0.31    <-- DIS
      80     193.22071497     193.15439255       3.434E-04      0.32    <-- DIS
      81     193.17271211     193.10899737       3.299E-04      0.32    <-- DIS
      82     193.12697326     193.06582429       3.167E-04      0.33    <-- DIS
      83     193.08342445     193.02479952       3.037E-04      0.33    <-- DIS
      84     193.04199166     192.98584558       2.909E-04      0.33    <-- DIS
      85     193.00259995     192.94888159       2.784E-04      0.34    <-- DIS
      86     192.96517294     192.91382404       2.662E-04      0.34    <-- DIS
      87     192.92963276     192.88058756       2.543E-04      0.35    <-- DIS
      88     192.89590014     192.84908595       2.428E-04      0.35    <-- DIS
      89     192.86389484     192.81923290       2.316E-04      0.35    <-- DIS
      90     192.83353607     192.79094283       2.209E-04      0.36    <-- DIS
      91     192.80474302     192.76413134       2.107E-04      0.36    <-- DIS
      92     192.77743532     192.73871567       2.009E-04      0.37    <-- DIS
      93     192.75153349     192.71461497       1.916E-04      0.37    <-- DIS
      94     192.72695925     192.69175041       1.827E-04      0.37    <-- DIS
      95     192.70363577     192.67004522       1.743E-04      0.38    <-- DIS
      96     192.68148784     192.64942463       1.664E-04      0.38    <-- DIS
      97     192.66044191     192.62981573       1.590E-04      0.39    <-- DIS
      98     192.64042607     192.61114730       1.520E-04      0.39    <-- DIS
      99     192.62137000     192.59334954       1.455E-04      0.39    <-- DIS
     100     192.60320477     192.57635377       1.394E-04      0.40    <-- DIS
     101     192.58586266     192.56009208       1.338E-04      0.40    <-- DIS
     102     192.56927690     192.54449702       1.287E-04      0.41    <-- DIS
     103     192.55338141     192.52950117       1.240E-04      0.41    <-- DIS
     104     192.53811047     192.51503680       1.199E-04      0.41    <-- DIS
     105     192.52339844     192.50103548       1.162E-04      0.42    <-- DIS
     106     192.50917949     192.48742789       1.130E-04      0.42    <-- DIS
     107     192.49538737     192.47414359       1.104E-04      0.43    <-- DIS
     108     192.48195537     192.46111112       1.083E-04      0.43    <-- DIS
     109     192.46881633     192.44825835       1.068E-04      0.43    <-- DIS
     110     192.45590302     192.43551324       1.060E-04      0.44    <-- DIS
     111     192.44314877     192.42280505       1.057E-04      0.44    <-- DIS
     112     192.43048856     192.41006626       1.061E-04      0.45    <-- DIS
     113     192.41786057     192.39723507       1.072E-04      0.45    <-- DIS
     114     192.40520826     192.38425842       1.089E-04      0.45    <-- DIS
     115     192.39248284     192.37109554       1.112E-04      0.46    <-- DIS
     116     192.37964609     192.35772135       1.140E-04      0.46    <-- DIS
     117     192.36667312     192.34412948       1.172E-04      0.46    <-- DIS
     118     192.35355466     192.33033410       1.207E-04      0.47    <-- DIS
     119     192.34029860     192.31637023       1.244E-04      0.47    <-- DIS
     120     192.32693017     192.30229206       1.281E-04      0.48    <-- DIS
     121     192.31349059     192.28816933       1.317E-04      0.48    <-- DIS
     122     192.30003430     192.27408224       1.350E-04      0.48    <-- DIS
     123     192.28662484     192.26011542       1.379E-04      0.49    <-- DIS
     124     192.27333007     192.24635191       1.403E-04      0.49    <-- DIS
     125     192.26021721     192.23286777       1.423E-04      0.50    <-- DIS
     126     192.24734844     192.21972811       1.437E-04      0.50    <-- DIS
     127     192.23477742     192.20698462       1.446E-04      0.50    <-- DIS
     128     192.22254709     192.19467480       1.450E-04      0.51    <-- DIS
     129     192.21068878     192.18282251       1.450E-04      0.51    <-- DIS
     130     192.19922246     192.17143955       1.446E-04      0.52    <-- DIS
     131     192.18815794     192.16052772       1.438E-04      0.52    <-- DIS
     132     192.17749648     192.15008117       1.427E-04      0.52    <-- DIS
     133     192.16723278     192.14008852       1.413E-04      0.53    <-- DIS
     134     192.15735683     192.13053482       1.396E-04      0.53    <-- DIS
     135     192.14785566     192.12140301       1.377E-04      0.54    <-- DIS
     136     192.13871468     192.11267516       1.355E-04      0.54    <-- DIS
     137     192.12991882     192.10433325       1.332E-04      0.54    <-- DIS
     138     192.12145327     192.09635974       1.306E-04      0.55    <-- DIS
     139     192.11330403     192.08873791       1.279E-04      0.55    <-- DIS
     140     192.10545818     192.08145207       1.250E-04      0.56    <-- DIS
     141     192.09790402     192.07448758       1.219E-04      0.56    <-- DIS
     142     192.09063112     192.06783089       1.187E-04      0.56    <-- DIS
     143     192.08363023     192.06146944       1.154E-04      0.57    <-- DIS
     144     192.07689318     192.05539163       1.120E-04      0.57    <-- DIS
     145     192.07041273     192.04958665       1.084E-04      0.58    <-- DIS
     146     192.06418242     192.04404440       1.049E-04      0.58    <-- DIS
     147     192.05819638     192.03875533       1.012E-04      0.58    <-- DIS
     148     192.05244919     192.03371038       9.758E-05      0.59    <-- DIS
     149     192.04693571     192.02890082       9.392E-05      0.59    <-- DIS
     150     192.04165092     192.02431820       9.026E-05      0.60    <-- DIS
     151     192.03658985     192.01995427       8.663E-05      0.60    <-- DIS
     152     192.03174744     192.01580087       8.305E-05      0.60    <-- DIS
     153     192.02711845     192.01184998       7.952E-05      0.61    <-- DIS
     154     192.02269745     192.00809362       7.606E-05      0.61    <-- DIS
     155     192.01847877     192.00452390       7.268E-05      0.62    <-- DIS
     156     192.01445648     192.00113297       6.939E-05      0.62    <-- DIS
     157     192.01062440     191.99791309       6.621E-05      0.62    <-- DIS
     158     192.00697615     191.99485660       6.312E-05      0.63    <-- DIS
     159     192.00350516     191.99195598       6.015E-05      0.63    <-- DIS
     160     192.00020469     191.98920384       5.730E-05      0.64    <-- DIS
     161     191.99706795     191.98659299       5.456E-05      0.64    <-- DIS
     162     191.99408809     191.98411643       5.194E-05      0.64    <-- DIS
     163     191.99125824     191.98176737       4.944E-05      0.65    <-- DIS
     164     191.98857162     191.97953926       4.705E-05      0.65    <-- DIS
     165     191.98602152     191.97742579       4.477E-05      0.66    <-- DIS
     166     191.98360135     191.97542091       4.261E-05      0.66    <-- DIS
     167     191.98130469     191.97351884       4.056E-05      0.66    <-- DIS
     168     191.97912531     191.97171405       3.861E-05      0.67    <-- DIS
     169     191.97705719     191.97000127       3.676E-05      0.67    <-- DIS
     170     191.97509452     191.96837550       3.500E-05      0.67    <-- DIS
     171     191.97323172     191.96683200       3.334E-05      0.68    <-- DIS
     172     191.97146347     191.96536625       3.176E-05      0.68    <-- DIS
     173     191.96978467     191.96397401       3.027E-05      0.69    <-- DIS
     174     191.96819047     191.96265124       2.886E-05      0.69    <-- DIS
     175     191.96667627     191.96139412       2.752E-05      0.69    <-- DIS
     176     191.96523770     191.96019907       2.625E-05      0.70    <-- DIS
     177     191.96387062     191.95906268       2.505E-05      0.70    <-- DIS
     178     191.96257110     191.95798177       2.391E-05      0.71    <-- DIS
     179     191.96133545     191.95695330       2.283E-05      0.71    <-- DIS
     180     191.96016016     191.95597443       2.181E-05      0.71    <-- DIS
     181     191.95904194     191.95504247       2.084E-05      0.72    <-- DIS
     182     191.95797768     191.95415490       1.992E-05      0.72    <-- DIS
     183     191.95696442     191.95330933       1.904E-05      0.73    <-- DIS
     184     191.95599942     191.95250352       1.821E-05      0.73    <-- DIS
     185     191.95508006     191.95173533       1.742E-05      0.73    <-- DIS
     186     191.95420388     191.95100279       1.668E-05      0.74    <-- DIS
     187     191.95336858     191.95030400       1.597E-05      0.74    <-- DIS
     188     191.95257197     191.94963719       1.529E-05      0.75    <-- DIS
     189     191.95181199     191.94900069       1.465E-05      0.75    <-- DIS
     190     191.95108673     191.94839291       1.403E-05      0.75    <-- DIS
     191     191.95039434     191.94781237       1.345E-05      0.76    <-- DIS
     192     191.94973312     191.94725768       1.290E-05      0.76    <-- DIS
     193     191.94910144     191.94672749       1.237E-05      0.77    <-- DIS
     194     191.94849779     191.94622056       1.186E-05      0.77    <-- DIS
     195     191.94792072     191.94573571       1.138E-05      0.77    <-- DIS
     196     191.94736887     191.94527183       1.093E-05      0.78    <-- DIS
     197     191.94684098     191.94482787       1.049E-05      0.78    <-- DIS
     198     191.94633582     191.94440282       1.007E-05      0.79    <-- DIS
     199     191.94585226     191.94399576       9.672E-06      0.79    <-- DIS
     200     191.94538923     191.94360579       9.291E-06      0.79    <-- DIS
     201     191.94494572     191.94323209       8.928E-06      0.80    <-- DIS
     202     191.94452075     191.94287384       8.580E-06      0.80    <-- DIS
     203     191.94411343     191.94253032       8.248E-06      0.81    <-- DIS
     204     191.94372291     191.94220081       7.930E-06      0.81    <-- DIS
     205     191.94334836     191.94188463       7.626E-06      0.81    <-- DIS
     206     191.94298904     191.94158117       7.335E-06      0.82    <-- DIS
     207     191.94264420     191.94128980       7.056E-06      0.82    <-- DIS
     208     191.94231318     191.94100998       6.790E-06      0.82    <-- DIS
     209     191.94199532     191.94074116       6.534E-06      0.83    <-- DIS
     210     191.94169002     191.94048283       6.289E-06      0.83    <-- DIS
     211     191.94139668     191.94023451       6.055E-06      0.84    <-- DIS
     212     191.94111476     191.93999575       5.830E-06      0.84    <-- DIS
     213     191.94084374     191.93976610       5.614E-06      0.84    <-- DIS
     214     191.94058312     191.93954516       5.408E-06      0.85    <-- DIS
     215     191.94033244     191.93933255       5.209E-06      0.85    <-- DIS
     216     191.94009126     191.93912788       5.019E-06      0.86    <-- DIS
     217     191.93985915     191.93893082       4.837E-06      0.86    <-- DIS
     218     191.93963571     191.93874103       4.661E-06      0.86    <-- DIS
     219     191.93942056     191.93855818       4.493E-06      0.87    <-- DIS
     220     191.93921335     191.93838199       4.331E-06      0.87    <-- DIS
     221     191.93901373     191.93821217       4.176E-06      0.88    <-- DIS
     222     191.93882138     191.93804845       4.027E-06      0.88    <-- DIS
     223     191.93863598     191.93789056       3.884E-06      0.88    <-- DIS
     224     191.93845725     191.93773827       3.746E-06      0.89    <-- DIS
     225     191.93828490     191.93759134       3.613E-06      0.89    <-- DIS
     226     191.93811867     191.93744956       3.486E-06      0.90    <-- DIS
     227     191.93795831     191.93731270       3.364E-06      0.90    <-- DIS
     228     191.93780357     191.93718057       3.246E-06      0.90    <-- DIS
     229     191.93765423     191.93705298       3.133E-06      0.91    <-- DIS
     230     191.93751007     191.93692975       3.023E-06      0.91    <-- DIS
     231     191.93737087     191.93681070       2.919E-06      0.92    <-- DIS
     232     191.93723645     191.93669567       2.818E-06      0.92    <-- DIS
     233     191.93710661     191.93658449       2.720E-06      0.92    <-- DIS
     234     191.93698117     191.93647703       2.627E-06      0.93    <-- DIS
     235     191.93685997     191.93637313       2.536E-06      0.93    <-- DIS
     236     191.93674282     191.93627266       2.450E-06      0.94    <-- DIS
     237     191.93662959     191.93617549       2.366E-06      0.94    <-- DIS
     238     191.93652012     191.93608149       2.285E-06      0.94    <-- DIS
     239     191.93641426     191.93599055       2.208E-06      0.95    <-- DIS
     240     191.93631188     191.93590254       2.133E-06      0.95    <-- DIS
     241     191.93621285     191.93581737       2.060E-06      0.95    <-- DIS
     242     191.93611704     191.93573492       1.991E-06      0.96    <-- DIS
     243     191.93602434     191.93565509       1.924E-06      0.96    <-- DIS
     244     191.93593462     191.93557780       1.859E-06      0.97    <-- DIS
     245     191.93584779     191.93550294       1.797E-06      0.97    <-- DIS
     246     191.93576373     191.93543044       1.736E-06      0.97    <-- DIS
     247     191.93568234     191.93536020       1.678E-06      0.98    <-- DIS
     248     191.93560354     191.93529215       1.622E-06      0.98    <-- DIS
     249     191.93552722     191.93522621       1.568E-06      0.99    <-- DIS
     250     191.93545330     191.93516231       1.516E-06      0.99    <-- DIS
     251     191.93538169     191.93510037       1.466E-06      0.99    <-- DIS
     252     191.93531231     191.93504032       1.417E-06      1.00    <-- DIS
     253     191.93524509     191.93498211       1.370E-06      1.00    <-- DIS
     254     191.93517994     191.93492567       1.325E-06      1.01    <-- DIS
     255     191.93511680     191.93487093       1.281E-06      1.01    <-- DIS
     256     191.93505560     191.93481785       1.239E-06      1.01    <-- DIS
     257     191.93499628     191.93476636       1.198E-06      1.02    <-- DIS
     258     191.93493876     191.93471641       1.158E-06      1.02    <-- DIS
     259     191.93488299     191.93466796       1.120E-06      1.03    <-- DIS
     260     191.93482890     191.93462094       1.083E-06      1.03    <-- DIS
     261     191.93477645     191.93457532       1.048E-06      1.03    <-- DIS
     262     191.93472557     191.93453104       1.014E-06      1.04    <-- DIS
     263     191.93467622     191.93448807       9.803E-07      1.04    <-- DIS
     264     191.93462835     191.93444636       9.482E-07      1.05    <-- DIS
     265     191.93458190     191.93440587       9.171E-07      1.05    <-- DIS
     266     191.93453683     191.93436657       8.871E-07      1.05    <-- DIS
     267     191.93449310     191.93432840       8.581E-07      1.06    <-- DIS
     268     191.93445065     191.93429135       8.300E-07      1.06    <-- DIS
     269     191.93440946     191.93425536       8.029E-07      1.07    <-- DIS
     270     191.93436947     191.93422042       7.766E-07      1.07    <-- DIS
     271     191.93433066     191.93418648       7.512E-07      1.07    <-- DIS
     272     191.93429298     191.93415351       7.267E-07      1.08    <-- DIS
     273     191.93425640     191.93412149       7.029E-07      1.08    <-- DIS
     274     191.93422088     191.93409038       6.799E-07      1.09    <-- DIS
     275     191.93418639     191.93406015       6.577E-07      1.09    <-- DIS
     276     191.93415289     191.93403079       6.362E-07      1.09    <-- DIS
     277     191.93412037     191.93400226       6.154E-07      1.10    <-- DIS
     278     191.93408878     191.93397453       5.952E-07      1.10    <-- DIS
     279     191.93405809     191.93394759       5.757E-07      1.11    <-- DIS
     280     191.93402829     191.93392141       5.569E-07      1.11    <-- DIS
     281     191.93399933     191.93389596       5.386E-07      1.11    <-- DIS
     282     191.93397120     191.93387122       5.209E-07      1.12    <-- DIS
     283     191.93394388     191.93384718       5.038E-07      1.12    <-- DIS
     284     191.93391732     191.93382381       4.872E-07      1.13    <-- DIS
     285     191.93389152     191.93380108       4.712E-07      1.13    <-- DIS
     286     191.93386645     191.93377899       4.557E-07      1.13    <-- DIS
     287     191.93384209     191.93375752       4.406E-07      1.14    <-- DIS
     288     191.93381842     191.93373664       4.261E-07      1.14    <-- DIS
     289     191.93379541     191.93371633       4.120E-07      1.14    <-- DIS
     290     191.93377304     191.93369659       3.983E-07      1.15    <-- DIS
     291     191.93375130     191.93367739       3.851E-07      1.15    <-- DIS
     292     191.93373017     191.93365872       3.723E-07      1.16    <-- DIS
     293     191.93370963     191.93364056       3.599E-07      1.16    <-- DIS
     294     191.93368966     191.93362290       3.479E-07      1.16    <-- DIS
     295     191.93367025     191.93360572       3.362E-07      1.17    <-- DIS
     296     191.93365138     191.93358901       3.250E-07      1.17    <-- DIS
     297     191.93363303     191.93357275       3.140E-07      1.18    <-- DIS
     298     191.93361519     191.93355694       3.035E-07      1.18    <-- DIS
     299     191.93359784     191.93354156       2.932E-07      1.18    <-- DIS
     300     191.93358097     191.93352660       2.833E-07      1.19    <-- DIS
     301     191.93356456     191.93351204       2.736E-07      1.19    <-- DIS
     302     191.93354861     191.93349788       2.643E-07      1.20    <-- DIS
     303     191.93353309     191.93348410       2.553E-07      1.20    <-- DIS
     304     191.93351800     191.93347069       2.465E-07      1.20    <-- DIS
     305     191.93350333     191.93345764       2.381E-07      1.21    <-- DIS
     306     191.93348905     191.93344494       2.298E-07      1.21    <-- DIS
     307     191.93347517     191.93343259       2.219E-07      1.22    <-- DIS
     308     191.93346166     191.93342056       2.141E-07      1.22    <-- DIS
     309     191.93344853     191.93340886       2.067E-07      1.22    <-- DIS
     310     191.93343575     191.93339747       1.994E-07      1.23    <-- DIS
     311     191.93342332     191.93338639       1.924E-07      1.23    <-- DIS
     312     191.93341122     191.93337560       1.856E-07      1.24    <-- DIS
     313     191.93339945     191.93336510       1.790E-07      1.24    <-- DIS
     314     191.93338801     191.93335488       1.726E-07      1.24    <-- DIS
     315     191.93337687     191.93334493       1.664E-07      1.25    <-- DIS
     316     191.93336603     191.93333525       1.604E-07      1.25    <-- DIS
     317     191.93335549     191.93332582       1.545E-07      1.26    <-- DIS
     318     191.93334523     191.93331665       1.489E-07      1.26    <-- DIS
     319     191.93333524     191.93330771       1.434E-07      1.26    <-- DIS
     320     191.93332553     191.93329902       1.381E-07      1.27    <-- DIS
     321     191.93331607     191.93329055       1.330E-07      1.27    <-- DIS
     322     191.93330687     191.93328231       1.280E-07      1.28    <-- DIS
     323     191.93329792     191.93327428       1.232E-07      1.28    <-- DIS
     324     191.93328921     191.93326647       1.185E-07      1.28    <-- DIS
     325     191.93328073     191.93325886       1.140E-07      1.29    <-- DIS
     326     191.93327247     191.93325145       1.096E-07      1.29    <-- DIS
     327     191.93326444     191.93324423       1.053E-07      1.29    <-- DIS
     328     191.93325662     191.93323721       1.012E-07      1.30    <-- DIS
     329     191.93324902     191.93323037       9.715E-08      1.30    <-- DIS
     330     191.93324161     191.93322371       9.327E-08      1.31    <-- DIS
     331     191.93323440     191.93321722       8.951E-08      1.31    <-- DIS
     332     191.93322738     191.93321090       8.587E-08      1.31    <-- DIS
     333     191.93322055     191.93320475       8.233E-08      1.32    <-- DIS
     334     191.93321390     191.93319876       7.891E-08      1.32    <-- DIS
     335     191.93320743     191.93319292       7.559E-08      1.33    <-- DIS
     336     191.93320113     191.93318724       7.238E-08      1.33    <-- DIS
     337     191.93319500     191.93318170       6.926E-08      1.33    <-- DIS
     338     191.93318902     191.93317631       6.624E-08      1.34    <-- DIS
     339     191.93318321     191.93317106       6.332E-08      1.34    <-- DIS
     340     191.93317755     191.93316594       6.048E-08      1.35    <-- DIS
     341     191.93317204     191.93316096       5.774E-08      1.35    <-- DIS
     342     191.93316668     191.93315611       5.508E-08      1.35    <-- DIS
     343     191.93316146     191.93315138       5.250E-08      1.36    <-- DIS
     344     191.93315637     191.93314677       5.000E-08      1.36    <-- DIS
     345     191.93315142     191.93314229       4.758E-08      1.37    <-- DIS
     346     191.93314660     191.93313792       4.524E-08      1.37    <-- DIS
     347     191.93314191     191.93313366       4.297E-08      1.37    <-- DIS
     348     191.93313734     191.93312951       4.077E-08      1.38    <-- DIS
     349     191.93313289     191.93312547       3.864E-08      1.38    <-- DIS
     350     191.93312855     191.93312153       3.658E-08      1.39    <-- DIS
     351     191.93312434     191.93311770       3.458E-08      1.39    <-- DIS
     352     191.93312023     191.93311396       3.265E-08      1.39    <-- DIS
     353     191.93311623     191.93311032       3.078E-08      1.40    <-- DIS
     354     191.93311233     191.93310677       2.897E-08      1.40    <-- DIS
     355     191.93310854     191.93310332       2.721E-08      1.40    <-- DIS
     356     191.93310485     191.93309995       2.552E-08      1.41    <-- DIS
     357     191.93310125     191.93309667       2.387E-08      1.41    <-- DIS
     358     191.93309775     191.93309347       2.228E-08      1.42    <-- DIS
     359     191.93309434     191.93309036       2.074E-08      1.42    <-- DIS
     360     191.93309102     191.93308732       1.926E-08      1.42    <-- DIS
     361     191.93308778     191.93308436       1.781E-08      1.43    <-- DIS
     362     191.93308463     191.93308148       1.642E-08      1.43    <-- DIS
     363     191.93308156     191.93307867       1.507E-08      1.44    <-- DIS
     364     191.93307858     191.93307593       1.377E-08      1.44    <-- DIS
     365     191.93307567     191.93307326       1.251E-08      1.44    <-- DIS
     366     191.93307283     191.93307066       1.129E-08      1.45    <-- DIS
     367     191.93307007     191.93306813       1.011E-08      1.45    <-- DIS
     368     191.93306738     191.93306566       8.976E-09      1.46    <-- DIS
     369     191.93306477     191.93306326       7.876E-09      1.46    <-- DIS
     370     191.93306222     191.93306091       6.813E-09      1.46    <-- DIS
     371     191.93305974     191.93305863       5.786E-09      1.47    <-- DIS
     372     191.93305732     191.93305640       4.794E-09      1.47    <-- DIS
     373     191.93305496     191.93305423       3.837E-09      1.48    <-- DIS
     374     191.93305267     191.93305211       2.912E-09      1.48    <-- DIS
     375     191.93305044     191.93305005       2.019E-09      1.48    <-- DIS
     376     191.93304826     191.93304804       1.157E-09      1.49    <-- DIS
     377     191.93304614     191.93304608       3.256E-10      1.49    <-- DIS
     378     191.93304408     191.93304417      -4.766E-10      1.50    <-- DIS
     379     191.93304207     191.93304231      -1.250E-09      1.50    <-- DIS
     380     191.93304011     191.93304049      -1.996E-09      1.50    <-- DIS
     381     191.93303820     191.93303872      -2.716E-09      1.51    <-- DIS
     382     191.93303635     191.93303700      -3.409E-09      1.51    <-- DIS
     383     191.93303454     191.93303532      -4.077E-09      1.51    <-- DIS
     384     191.93303277     191.93303368      -4.720E-09      1.52    <-- DIS
     385     191.93303106     191.93303208      -5.340E-09      1.52    <-- DIS
     386     191.93302939     191.93303053      -5.936E-09      1.53    <-- DIS
     387     191.93302776     191.93302901      -6.510E-09      1.53    <-- DIS
     388     191.93302617     191.93302753      -7.062E-09      1.53    <-- DIS
     389     191.93302463     191.93302609      -7.593E-09      1.54    <-- DIS
     390     191.93302313     191.93302468      -8.103E-09      1.54    <-- DIS
     391     191.93302166     191.93302331      -8.593E-09      1.55    <-- DIS
     392     191.93302023     191.93302197      -9.064E-09      1.55    <-- DIS
     393     191.93301885     191.93302067      -9.516E-09      1.55    <-- DIS
     394     191.93301749     191.93301940      -9.950E-09      1.56    <-- DIS
     395     191.93301617     191.93301816      -1.037E-08      1.56    <-- DIS
     396     191.93301489     191.93301696      -1.077E-08      1.57    <-- DIS
     397     191.93301364     191.93301578      -1.115E-08      1.57    <-- DIS
     398     191.93301242     191.93301463      -1.151E-08      1.57    <-- DIS
     399     191.93301124     191.93301351      -1.186E-08      1.58    <-- DIS
     400     191.93301008     191.93301242      -1.220E-08      1.58    <-- DIS
     401     191.93300896     191.93301136      -1.252E-08      1.59    <-- DIS
     402     191.93300786     191.93301032      -1.283E-08      1.59    <-- DIS
     403     191.93300679     191.93300931      -1.312E-08      1.59    <-- DIS
     404     191.93300575     191.93300832      -1.340E-08      1.60    <-- DIS
     405     191.93300474     191.93300736      -1.366E-08      1.60    <-- DIS
     406     191.93300375     191.93300642      -1.391E-08      1.61    <-- DIS
     407     191.93300279     191.93300551      -1.416E-08      1.61    <-- DIS
     408     191.93300186     191.93300462      -1.438E-08      1.61    <-- DIS
     409     191.93300095     191.93300375      -1.460E-08      1.62    <-- DIS
     410     191.93300006     191.93300290      -1.481E-08      1.62    <-- DIS
     411     191.93299920     191.93300208      -1.500E-08      1.63    <-- DIS
     412     191.93299836     191.93300127      -1.518E-08      1.63    <-- DIS
     413     191.93299754     191.93300048      -1.536E-08      1.63    <-- DIS
     414     191.93299674     191.93299972      -1.552E-08      1.64    <-- DIS
     415     191.93299596     191.93299897      -1.568E-08      1.64    <-- DIS
     416     191.93299521     191.93299824      -1.582E-08      1.64    <-- DIS
     417     191.93299447     191.93299753      -1.596E-08      1.65    <-- DIS
     418     191.93299375     191.93299684      -1.608E-08      1.65    <-- DIS
     419     191.93299305     191.93299616      -1.620E-08      1.66    <-- DIS
     420     191.93299237     191.93299550      -1.631E-08      1.66    <-- DIS
     421     191.93299171     191.93299486      -1.642E-08      1.66    <-- DIS
     422     191.93299107     191.93299423      -1.651E-08      1.67    <-- DIS
     423     191.93299044     191.93299362      -1.660E-08      1.67    <-- DIS
     424     191.93298983     191.93299303      -1.668E-08      1.68    <-- DIS
     425     191.93298923     191.93299244      -1.675E-08      1.68    <-- DIS
     426     191.93298865     191.93299188      -1.682E-08      1.69    <-- DIS
     427     191.93298809     191.93299132      -1.688E-08      1.69    <-- DIS
     428     191.93298754     191.93299079      -1.693E-08      1.69    <-- DIS
     429     191.93298700     191.93299026      -1.698E-08      1.70    <-- DIS
     430     191.93298648     191.93298975      -1.702E-08      1.70    <-- DIS
     431     191.93298597     191.93298925      -1.705E-08      1.71    <-- DIS
     432     191.93298548     191.93298876      -1.708E-08      1.71    <-- DIS
     433     191.93298500     191.93298828      -1.710E-08      1.71    <-- DIS
     434     191.93298453     191.93298782      -1.712E-08      1.72    <-- DIS
     435     191.93298407     191.93298736      -1.714E-08      1.72    <-- DIS
     436     191.93298363     191.93298692      -1.715E-08      1.73    <-- DIS
     437     191.93298320     191.93298649      -1.715E-08      1.73    <-- DIS
     438     191.93298278     191.93298607      -1.715E-08      1.73    <-- DIS
     439     191.93298237     191.93298566      -1.715E-08      1.74    <-- DIS
     440     191.93298197     191.93298526      -1.714E-08      1.74    <-- DIS
     441     191.93298158     191.93298487      -1.712E-08      1.74    <-- DIS
     442     191.93298121     191.93298449      -1.711E-08      1.75    <-- DIS
     443     191.93298084     191.93298412      -1.709E-08      1.75    <-- DIS
     444     191.93298048     191.93298376      -1.706E-08      1.76    <-- DIS
     445     191.93298013     191.93298340      -1.703E-08      1.76    <-- DIS
     446     191.93297980     191.93298306      -1.700E-08      1.76    <-- DIS
     447     191.93297947     191.93298272      -1.697E-08      1.77    <-- DIS
     448     191.93297915     191.93298239      -1.693E-08      1.77    <-- DIS
     449     191.93297883     191.93298207      -1.689E-08      1.78    <-- DIS
     450     191.93297853     191.93298176      -1.684E-08      1.78    <-- DIS
     451     191.93297824     191.93298146      -1.680E-08      1.78    <-- DIS
     452     191.93297795     191.93298116      -1.675E-08      1.79    <-- DIS
     453     191.93297767     191.93298087      -1.669E-08      1.79    <-- DIS
     454     191.93297740     191.93298059      -1.664E-08      1.80    <-- DIS
     455     191.93297713     191.93298031      -1.658E-08      1.80    <-- DIS
     456     191.93297687     191.93298005      -1.652E-08      1.80    <-- DIS
     457     191.93297662     191.93297978      -1.646E-08      1.81    <-- DIS
     458     191.93297638     191.93297953      -1.640E-08      1.81    <-- DIS
     459     191.93297614     191.93297928      -1.633E-08      1.82    <-- DIS
     460     191.93297591     191.93297903      -1.626E-08      1.82    <-- DIS
     461     191.93297569     191.93297880      -1.619E-08      1.82    <-- DIS
     462     191.93297547     191.93297856      -1.612E-08      1.83    <-- DIS
     463     191.93297526     191.93297834      -1.605E-08      1.83    <-- DIS
     464     191.93297505     191.93297812      -1.597E-08      1.84    <-- DIS
     465     191.93297485     191.93297790      -1.589E-08      1.84    <-- DIS
     466     191.93297466     191.93297769      -1.582E-08      1.84    <-- DIS
     467     191.93297447     191.93297749      -1.574E-08      1.85    <-- DIS
     468     191.93297428     191.93297729      -1.565E-08      1.85    <-- DIS
     469     191.93297410     191.93297709      -1.557E-08      1.86    <-- DIS
     470     191.93297393     191.93297690      -1.549E-08      1.86    <-- DIS
     471     191.93297376     191.93297672      -1.540E-08      1.86    <-- DIS
     472     191.93297359     191.93297653      -1.532E-08      1.87    <-- DIS
     473     191.93297343     191.93297636      -1.523E-08      1.87    <-- DIS
     474     191.93297328     191.93297619      -1.514E-08      1.88    <-- DIS
     475     191.93297313     191.93297602      -1.505E-08      1.88    <-- DIS
     476     191.93297298     191.93297585      -1.496E-08      1.88    <-- DIS
     477     191.93297284     191.93297569      -1.487E-08      1.89    <-- DIS
     478     191.93297270     191.93297554      -1.478E-08      1.89    <-- DIS
     479     191.93297256     191.93297538      -1.469E-08      1.90    <-- DIS
     480     191.93297243     191.93297523      -1.459E-08      1.90    <-- DIS
     481     191.93297231     191.93297509      -1.450E-08      1.90    <-- DIS
     482     191.93297218     191.93297495      -1.441E-08      1.91    <-- DIS
     483     191.93297206     191.93297481      -1.431E-08      1.91    <-- DIS
     484     191.93297195     191.93297467      -1.422E-08      1.92    <-- DIS
     485     191.93297183     191.93297454      -1.412E-08      1.92    <-- DIS
     486     191.93297172     191.93297441      -1.402E-08      1.92    <-- DIS
     487     191.93297162     191.93297429      -1.393E-08      1.93    <-- DIS
     488     191.93297151     191.93297417      -1.383E-08      1.93    <-- DIS
     489     191.93297141     191.93297405      -1.373E-08      1.94    <-- DIS
     490     191.93297131     191.93297393      -1.363E-08      1.94    <-- DIS
     491     191.93297122     191.93297382      -1.354E-08      1.94    <-- DIS
     492     191.93297113     191.93297371      -1.344E-08      1.95    <-- DIS
     493     191.93297104     191.93297360      -1.334E-08      1.95    <-- DIS
     494     191.93297095     191.93297349      -1.324E-08      1.96    <-- DIS
     495     191.93297087     191.93297339      -1.314E-08      1.96    <-- DIS
     496     191.93297079     191.93297329      -1.304E-08      1.96    <-- DIS
     497     191.93297071     191.93297319      -1.294E-08      1.97    <-- DIS
     498     191.93297063     191.93297310      -1.284E-08      1.97    <-- DIS
     499     191.93297056     191.93297300      -1.274E-08      1.98    <-- DIS
     500     191.93297048     191.93297291      -1.265E-08      1.98    <-- DIS
     501     191.93297041     191.93297282      -1.255E-08      1.98    <-- DIS
     502     191.93297035     191.93297273      -1.245E-08      1.99    <-- DIS
     503     191.93297028     191.93297265      -1.235E-08      1.99    <-- DIS
     504     191.93297022     191.93297257      -1.225E-08      2.00    <-- DIS
     505     191.93297015     191.93297249      -1.215E-08      2.00    <-- DIS
     506     191.93297009     191.93297241      -1.205E-08      2.00    <-- DIS
     507     191.93297004     191.93297233      -1.195E-08      2.01    <-- DIS
     508     191.93296998     191.93297226      -1.185E-08      2.01    <-- DIS
     509     191.93296993     191.93297218      -1.176E-08      2.01    <-- DIS
     510     191.93296987     191.93297211      -1.166E-08      2.02    <-- DIS
     511     191.93296982     191.93297204      -1.156E-08      2.02    <-- DIS
     512     191.93296977     191.93297197      -1.146E-08      2.03    <-- DIS
     513     191.93296973     191.93297191      -1.136E-08      2.03    <-- DIS
     514     191.93296968     191.93297184      -1.127E-08      2.03    <-- DIS
     515     191.93296963     191.93297178      -1.117E-08      2.04    <-- DIS
     516     191.93296959     191.93297172      -1.107E-08      2.04    <-- DIS
     517     191.93296955     191.93297166      -1.098E-08      2.05    <-- DIS
     518     191.93296951     191.93297160      -1.088E-08      2.05    <-- DIS
     519     191.93296947     191.93297154      -1.079E-08      2.05    <-- DIS
     520     191.93296943     191.93297148      -1.069E-08      2.06    <-- DIS
     521     191.93296940     191.93297143      -1.060E-08      2.06    <-- DIS
     522     191.93296936     191.93297138      -1.050E-08      2.07    <-- DIS
     523     191.93296933     191.93297132      -1.041E-08      2.07    <-- DIS
     524     191.93296929     191.93297127      -1.031E-08      2.07    <-- DIS
     525     191.93296926     191.93297122      -1.022E-08      2.08    <-- DIS
     526     191.93296923     191.93297117      -1.013E-08      2.08    <-- DIS
     527     191.93296920     191.93297113      -1.004E-08      2.09    <-- DIS
     528     191.93296917     191.93297108      -9.944E-09      2.09    <-- DIS
     529     191.93296915     191.93297104      -9.853E-09      2.09    <-- DIS
     530     191.93296912     191.93297099      -9.762E-09      2.10    <-- DIS
     531     191.93296909     191.93297095      -9.671E-09      2.10    <-- DIS
     532     191.93296907     191.93297091      -9.581E-09      2.11    <-- DIS
     533     191.93296904     191.93297087      -9.491E-09      2.11    <-- DIS
     534     191.93296902     191.93297083      -9.402E-09      2.11    <-- DIS
     535     191.93296900     191.93297079      -9.313E-09      2.12    <-- DIS
     536     191.93296898     191.93297075      -9.225E-09      2.12    <-- DIS
     537     191.93296896     191.93297071      -9.137E-09      2.13    <-- DIS
     538     191.93296894     191.93297068      -9.050E-09      2.13    <-- DIS
     539     191.93296892     191.93297064      -8.963E-09      2.13    <-- DIS
     540     191.93296890     191.93297061      -8.877E-09      2.14    <-- DIS
     541     191.93296889     191.93297057      -8.791E-09      2.14    <-- DIS
     542     191.93296887     191.93297054      -8.706E-09      2.15    <-- DIS
     543     191.93296885     191.93297051      -8.621E-09      2.15    <-- DIS
     544     191.93296884     191.93297048      -8.537E-09      2.15    <-- DIS
     545     191.93296882     191.93297045      -8.453E-09      2.16    <-- DIS
     546     191.93296881     191.93297042      -8.370E-09      2.16    <-- DIS
     547     191.93296880     191.93297039      -8.288E-09      2.16    <-- DIS
     548     191.93296878     191.93297036      -8.206E-09      2.17    <-- DIS
     549     191.93296877     191.93297033      -8.124E-09      2.17    <-- DIS
     550     191.93296876     191.93297030      -8.043E-09      2.18    <-- DIS
     551     191.93296875     191.93297028      -7.963E-09      2.18    <-- DIS
     552     191.93296874     191.93297025      -7.883E-09      2.18    <-- DIS
     553     191.93296873     191.93297023      -7.804E-09      2.19    <-- DIS
     554     191.93296872     191.93297020      -7.725E-09      2.19    <-- DIS
     555     191.93296871     191.93297018      -7.647E-09      2.20    <-- DIS
     556     191.93296870     191.93297015      -7.569E-09      2.20    <-- DIS
     557     191.93296869     191.93297013      -7.492E-09      2.20    <-- DIS
     558     191.93296868     191.93297011      -7.415E-09      2.21    <-- DIS
     559     191.93296868     191.93297009      -7.339E-09      2.21    <-- DIS
     560     191.93296867     191.93297006      -7.264E-09      2.22    <-- DIS
     561     191.93296866     191.93297004      -7.189E-09      2.22    <-- DIS
     562     191.93296866     191.93297002      -7.115E-09      2.22    <-- DIS
     563     191.93296865     191.93297000      -7.041E-09      2.23    <-- DIS
     564     191.93296865     191.93296998      -6.968E-09      2.23    <-- DIS
     565     191.93296864     191.93296997      -6.895E-09      2.24    <-- DIS
     566     191.93296864     191.93296995      -6.823E-09      2.24    <-- DIS
     567     191.93296863     191.93296993      -6.752E-09      2.24    <-- DIS
     568     191.93296863     191.93296991      -6.681E-09      2.25    <-- DIS
     569     191.93296863     191.93296989      -6.610E-09      2.25    <-- DIS
     570     191.93296862     191.93296988      -6.540E-09      2.26    <-- DIS
     571     191.93296862     191.93296986      -6.471E-09      2.26    <-- DIS
     572     191.93296862     191.93296985      -6.402E-09      2.26    <-- DIS
     573     191.93296861     191.93296983      -6.334E-09      2.27    <-- DIS
     574     191.93296861     191.93296981      -6.267E-09      2.27    <-- DIS
     575     191.93296861     191.93296980      -6.200E-09      2.28    <-- DIS
     576     191.93296861     191.93296978      -6.133E-09      2.28    <-- DIS
     577     191.93296861     191.93296977      -6.067E-09      2.28    <-- DIS
     578     191.93296861     191.93296976      -6.002E-09      2.29    <-- DIS
     579     191.93296860     191.93296974      -5.937E-09      2.29    <-- DIS
     580     191.93296860     191.93296973      -5.872E-09      2.29    <-- DIS
     581     191.93296860     191.93296972      -5.809E-09      2.30    <-- DIS
     582     191.93296860     191.93296970      -5.745E-09      2.30    <-- DIS
     583     191.93296860     191.93296969      -5.683E-09      2.31    <-- DIS
     584     191.93296860     191.93296968      -5.620E-09      2.31    <-- DIS
     585     191.93296860     191.93296967      -5.559E-09      2.31    <-- DIS
     586     191.93296860     191.93296966      -5.498E-09      2.32    <-- DIS
     587     191.93296860     191.93296965      -5.437E-09      2.32    <-- DIS
     588     191.93296860     191.93296964      -5.377E-09      2.33    <-- DIS
     589     191.93296860     191.93296962      -5.317E-09      2.33    <-- DIS
     590     191.93296860     191.93296961      -5.258E-09      2.33    <-- DIS
     591     191.93296861     191.93296960      -5.200E-09      2.34    <-- DIS
     592     191.93296861     191.93296959      -5.142E-09      2.34    <-- DIS
     593     191.93296861     191.93296958      -5.084E-09      2.35    <-- DIS
     594     191.93296861     191.93296958      -5.028E-09      2.35    <-- DIS
     595     191.93296861     191.93296957      -4.971E-09      2.35    <-- DIS
     596     191.93296861     191.93296956      -4.915E-09      2.36    <-- DIS
     597     191.93296862     191.93296955      -4.860E-09      2.36    <-- DIS
     598     191.93296862     191.93296954      -4.805E-09      2.37    <-- DIS
     599     191.93296862     191.93296953      -4.750E-09      2.37    <-- DIS
     600     191.93296862     191.93296952      -4.697E-09      2.37    <-- DIS
     601     191.93296862     191.93296951      -4.643E-09      2.38    <-- DIS
     602     191.93296863     191.93296951      -4.590E-09      2.38    <-- DIS
     603     191.93296863     191.93296950      -4.538E-09      2.39    <-- DIS
     604     191.93296863     191.93296949      -4.486E-09      2.39    <-- DIS
     605     191.93296863     191.93296948      -4.434E-09      2.39    <-- DIS
     606     191.93296864     191.93296948      -4.383E-09      2.40    <-- DIS
     607     191.93296864     191.93296947      -4.333E-09      2.40    <-- DIS
     608     191.93296864     191.93296946      -4.283E-09      2.41    <-- DIS
     609     191.93296864     191.93296946      -4.233E-09      2.41    <-- DIS
     610     191.93296865     191.93296945      -4.184E-09      2.41    <-- DIS
     611     191.93296865     191.93296944      -4.136E-09      2.42    <-- DIS
     612     191.93296865     191.93296944      -4.088E-09      2.42    <-- DIS
     613     191.93296866     191.93296943      -4.040E-09      2.43    <-- DIS
     614     191.93296866     191.93296943      -3.993E-09      2.43    <-- DIS
     615     191.93296866     191.93296942      -3.946E-09      2.43    <-- DIS
     616     191.93296867     191.93296942      -3.900E-09      2.44    <-- DIS
     617     191.93296867     191.93296941      -3.854E-09      2.44    <-- DIS
     618     191.93296867     191.93296940      -3.808E-09      2.45    <-- DIS
     619     191.93296868     191.93296940      -3.763E-09      2.45    <-- DIS
     620     191.93296868     191.93296939      -3.719E-09      2.45    <-- DIS
     621     191.93296868     191.93296939      -3.675E-09      2.46    <-- DIS
     622     191.93296869     191.93296938      -3.631E-09      2.46    <-- DIS
     623     191.93296869     191.93296938      -3.588E-09      2.46    <-- DIS
     624     191.93296869     191.93296937      -3.545E-09      2.47    <-- DIS
     625     191.93296870     191.93296937      -3.503E-09      2.47    <-- DIS
     626     191.93296870     191.93296937      -3.461E-09      2.48    <-- DIS
     627     191.93296871     191.93296936      -3.419E-09      2.48    <-- DIS
     628     191.93296871     191.93296936      -3.378E-09      2.48    <-- DIS
     629     191.93296871     191.93296935      -3.337E-09      2.49    <-- DIS
     630     191.93296872     191.93296935      -3.297E-09      2.49    <-- DIS
     631     191.93296872     191.93296935      -3.257E-09      2.50    <-- DIS
     632     191.93296872     191.93296934      -3.218E-09      2.50    <-- DIS
     633     191.93296873     191.93296934      -3.179E-09      2.50    <-- DIS
     634     191.93296873     191.93296933      -3.140E-09      2.51    <-- DIS
     635     191.93296874     191.93296933      -3.102E-09      2.51    <-- DIS
     636     191.93296874     191.93296933      -3.064E-09      2.52    <-- DIS
     637     191.93296874     191.93296932      -3.026E-09      2.52    <-- DIS
     638     191.93296875     191.93296932      -2.989E-09      2.52    <-- DIS
     639     191.93296875     191.93296932      -2.952E-09      2.53    <-- DIS
     640     191.93296875     191.93296931      -2.916E-09      2.53    <-- DIS
     641     191.93296876     191.93296931      -2.880E-09      2.54    <-- DIS
     642     191.93296876     191.93296931      -2.844E-09      2.54    <-- DIS
     643     191.93296877     191.93296930      -2.809E-09      2.54    <-- DIS
     644     191.93296877     191.93296930      -2.774E-09      2.55    <-- DIS
     645     191.93296877     191.93296930      -2.740E-09      2.55    <-- DIS
     646     191.93296878     191.93296930      -2.706E-09      2.56    <-- DIS
     647     191.93296878     191.93296929      -2.672E-09      2.56    <-- DIS
     648     191.93296878     191.93296929      -2.638E-09      2.56    <-- DIS
     649     191.93296879     191.93296929      -2.605E-09      2.57    <-- DIS
     650     191.93296879     191.93296929      -2.572E-09      2.57    <-- DIS
     651     191.93296880     191.93296928      -2.540E-09      2.58    <-- DIS
     652     191.93296880     191.93296928      -2.508E-09      2.58    <-- DIS
     653     191.93296880     191.93296928      -2.476E-09      2.58    <-- DIS
     654     191.93296881     191.93296928      -2.445E-09      2.59    <-- DIS
     655     191.93296881     191.93296927      -2.414E-09      2.59    <-- DIS
     656     191.93296881     191.93296927      -2.383E-09      2.60    <-- DIS
     657     191.93296882     191.93296927      -2.353E-09      2.60    <-- DIS
     658     191.93296882     191.93296927      -2.323E-09      2.60    <-- DIS
     659     191.93296883     191.93296927      -2.293E-09      2.61    <-- DIS
     660     191.93296883     191.93296926      -2.264E-09      2.61    <-- DIS
     661     191.93296883     191.93296926      -2.235E-09      2.61    <-- DIS
     662     191.93296884     191.93296926      -2.206E-09      2.62    <-- DIS
     663     191.93296884     191.93296926      -2.177E-09      2.62    <-- DIS
     664     191.93296884     191.93296926      -2.149E-09      2.63    <-- DIS
     665     191.93296885     191.93296925      -2.121E-09      2.63    <-- DIS
     666     191.93296885     191.93296925      -2.094E-09      2.63    <-- DIS
     667     191.93296885     191.93296925      -2.067E-09      2.64    <-- DIS
     668     191.93296886     191.93296925      -2.040E-09      2.64    <-- DIS
     669     191.93296886     191.93296925      -2.013E-09      2.65    <-- DIS
     670     191.93296886     191.93296925      -1.987E-09      2.65    <-- DIS
     671     191.93296887     191.93296924      -1.961E-09      2.65    <-- DIS
     672     191.93296887     191.93296924      -1.935E-09      2.66    <-- DIS
     673     191.93296888     191.93296924      -1.909E-09      2.66    <-- DIS
     674     191.93296888     191.93296924      -1.884E-09      2.67    <-- DIS
     675     191.93296888     191.93296924      -1.859E-09      2.67    <-- DIS
     676     191.93296889     191.93296924      -1.834E-09      2.67    <-- DIS
     677     191.93296889     191.93296924      -1.810E-09      2.68    <-- DIS
     678     191.93296889     191.93296923      -1.786E-09      2.68    <-- DIS
     679     191.93296890     191.93296923      -1.762E-09      2.69    <-- DIS
     680     191.93296890     191.93296923      -1.739E-09      2.69    <-- DIS
     681     191.93296890     191.93296923      -1.715E-09      2.69    <-- DIS
     682     191.93296891     191.93296923      -1.692E-09      2.70    <-- DIS
     683     191.93296891     191.93296923      -1.669E-09      2.70    <-- DIS
     684     191.93296891     191.93296923      -1.647E-09      2.71    <-- DIS
     685     191.93296891     191.93296923      -1.625E-09      2.71    <-- DIS
     686     191.93296892     191.93296923      -1.603E-09      2.71    <-- DIS
     687     191.93296892     191.93296922      -1.581E-09      2.72    <-- DIS
     688     191.93296892     191.93296922      -1.559E-09      2.72    <-- DIS
     689     191.93296893     191.93296922      -1.538E-09      2.72    <-- DIS
     690     191.93296893     191.93296922      -1.517E-09      2.73    <-- DIS
     691     191.93296893     191.93296922      -1.496E-09      2.73    <-- DIS
     692     191.93296894     191.93296922      -1.476E-09      2.74    <-- DIS
     693     191.93296894     191.93296922      -1.455E-09      2.74    <-- DIS
     694     191.93296894     191.93296922      -1.435E-09      2.74    <-- DIS
     695     191.93296895     191.93296922      -1.415E-09      2.75    <-- DIS
     696     191.93296895     191.93296922      -1.396E-09      2.75    <-- DIS
     697     191.93296895     191.93296922      -1.376E-09      2.76    <-- DIS
     698     191.93296895     191.93296921      -1.357E-09      2.76    <-- DIS
     699     191.93296896     191.93296921      -1.338E-09      2.76    <-- DIS
     700     191.93296896     191.93296921      -1.319E-09      2.77    <-- DIS
     701     191.93296896     191.93296921      -1.301E-09      2.77    <-- DIS
     702     191.93296897     191.93296921      -1.283E-09      2.78    <-- DIS
     703     191.93296897     191.93296921      -1.264E-09      2.78    <-- DIS
     704     191.93296897     191.93296921      -1.247E-09      2.78    <-- DIS
     705     191.93296897     191.93296921      -1.229E-09      2.79    <-- DIS
     706     191.93296898     191.93296921      -1.211E-09      2.79    <-- DIS
     707     191.93296898     191.93296921      -1.194E-09      2.80    <-- DIS
     708     191.93296898     191.93296921      -1.177E-09      2.80    <-- DIS
     709     191.93296898     191.93296921      -1.160E-09      2.80    <-- DIS
     710     191.93296899     191.93296921      -1.144E-09      2.81    <-- DIS
     711     191.93296899     191.93296921      -1.127E-09      2.81    <-- DIS
     712     191.93296899     191.93296920      -1.111E-09      2.82    <-- DIS
     713     191.93296899     191.93296920      -1.095E-09      2.82    <-- DIS
     714     191.93296900     191.93296920      -1.079E-09      2.82    <-- DIS
     715     191.93296900     191.93296920      -1.063E-09      2.83    <-- DIS
     716     191.93296900     191.93296920      -1.048E-09      2.83    <-- DIS
     717     191.93296900     191.93296920      -1.032E-09      2.83    <-- DIS
     718     191.93296901     191.93296920      -1.017E-09      2.84    <-- DIS
     719     191.93296901     191.93296920      -1.002E-09      2.84    <-- DIS
     720     191.93296901     191.93296920      -9.874E-10      2.85    <-- DIS
     721     191.93296901     191.93296920      -9.728E-10      2.85    <-- DIS
     722     191.93296902     191.93296920      -9.583E-10      2.85    <-- DIS
     723     191.93296902     191.93296920      -9.441E-10      2.86    <-- DIS
     724     191.93296902     191.93296920      -9.300E-10      2.86    <-- DIS
     725     191.93296902     191.93296920      -9.160E-10      2.87    <-- DIS
     726     191.93296902     191.93296920      -9.023E-10      2.87    <-- DIS
     727     191.93296903     191.93296920      -8.887E-10      2.87    <-- DIS
     728     191.93296903     191.93296920      -8.753E-10      2.88    <-- DIS
     729     191.93296903     191.93296920      -8.620E-10      2.88    <-- DIS
     730     191.93296903     191.93296920      -8.489E-10      2.89    <-- DIS
     731     191.93296904     191.93296920      -8.360E-10      2.89    <-- DIS
     732     191.93296904     191.93296920      -8.232E-10      2.89    <-- DIS
     733     191.93296904     191.93296919      -8.106E-10      2.90    <-- DIS
     734     191.93296904     191.93296919      -7.981E-10      2.90    <-- DIS
     735     191.93296904     191.93296919      -7.858E-10      2.91    <-- DIS
     736     191.93296905     191.93296919      -7.736E-10      2.91    <-- DIS
     737     191.93296905     191.93296919      -7.616E-10      2.91    <-- DIS
     738     191.93296905     191.93296919      -7.497E-10      2.92    <-- DIS
     739     191.93296905     191.93296919      -7.380E-10      2.92    <-- DIS
     740     191.93296905     191.93296919      -7.264E-10      2.93    <-- DIS
     741     191.93296906     191.93296919      -7.150E-10      2.93    <-- DIS
     742     191.93296906     191.93296919      -7.037E-10      2.93    <-- DIS
     743     191.93296906     191.93296919      -6.926E-10      2.94    <-- DIS
     744     191.93296906     191.93296919      -6.816E-10      2.94    <-- DIS
     745     191.93296906     191.93296919      -6.707E-10      2.94    <-- DIS
     746     191.93296906     191.93296919      -6.599E-10      2.95    <-- DIS
     747     191.93296907     191.93296919      -6.493E-10      2.95    <-- DIS
     748     191.93296907     191.93296919      -6.389E-10      2.96    <-- DIS
     749     191.93296907     191.93296919      -6.285E-10      2.96    <-- DIS
     750     191.93296907     191.93296919      -6.183E-10      2.96    <-- DIS
     751     191.93296907     191.93296919      -6.082E-10      2.97    <-- DIS
     752     191.93296907     191.93296919      -5.983E-10      2.97    <-- DIS
     753     191.93296908     191.93296919      -5.884E-10      2.98    <-- DIS
     754     191.93296908     191.93296919      -5.787E-10      2.98    <-- DIS
     755     191.93296908     191.93296919      -5.691E-10      2.98    <-- DIS
     756     191.93296908     191.93296919      -5.597E-10      2.99    <-- DIS
     757     191.93296908     191.93296919      -5.503E-10      2.99    <-- DIS
     758     191.93296908     191.93296919      -5.411E-10      3.00    <-- DIS
     759     191.93296909     191.93296919      -5.320E-10      3.00    <-- DIS
     760     191.93296909     191.93296919      -5.230E-10      3.00    <-- DIS
     761     191.93296909     191.93296919      -5.142E-10      3.01    <-- DIS
     762     191.93296909     191.93296919      -5.054E-10      3.01    <-- DIS
     763     191.93296909     191.93296919      -4.967E-10      3.02    <-- DIS
     764     191.93296909     191.93296919      -4.882E-10      3.02    <-- DIS
     765     191.93296909     191.93296919      -4.798E-10      3.02    <-- DIS
     766     191.93296910     191.93296919      -4.715E-10      3.03    <-- DIS
     767     191.93296910     191.93296919      -4.633E-10      3.03    <-- DIS
     768     191.93296910     191.93296919      -4.552E-10      3.04    <-- DIS
     769     191.93296910     191.93296919      -4.472E-10      3.04    <-- DIS
[...]
  WF centre and spread    6  ( -4.188305, -0.958489,  4.334160 )    22.83389373
  WF centre and spread    7  (  1.923985,  0.650501, -3.164161 )    24.00478241
  WF centre and spread    8  ( -2.156774,  1.155664, -2.930837 )    25.21105521
  WF centre and spread    9  (  0.718483,  0.828185,  0.802151 )    22.29109878
  WF centre and spread   10  ( -1.856849,  0.773444, -1.662282 )    32.19716227
  WF centre and spread   11  (  2.228240,  1.624075, -1.668450 )    27.64271194
  WF centre and spread   12  (  0.148806, -2.495318,  1.003231 )    29.31954443
  Sum of centres and spreads ( -0.838748,  8.632223,  1.877402 )   304.82535415
 
  10000    -0.425E+00    89.5172990476      304.8253541527      74.68  <-- CONV
        O_D=      9.7382831 O_OD=    103.1541018 O_TOT=    304.8253542 <-- SPRD
 Delta: O_D= -0.4337768E+00 O_OD=  0.8624897E-02 O_TOT= -0.4251519E+00 <-- DLTA
 ------------------------------------------------------------------------------

 done


 done


 done


 done


 done


 done


 done


 done


 done


 done

 Cycle:  11000
  WF centre and spread    1  (  2.257117,  1.024626,  2.687888 )    20.83864325
  WF centre and spread    2  ( -0.698785,  2.965906,  1.171486 )    23.46626196
  WF centre and spread    3  (  1.865358,  2.683396, -1.028548 )    24.41833160
  WF centre and spread    4  (  0.970079,  1.219816,  0.484933 )    23.99093972
  WF centre and spread    5  ( -2.056254, -0.850942,  1.846772 )    28.53336389
  WF centre and spread    6  ( -4.187927, -0.957866,  4.334632 )    22.82058628
  WF centre and spread    7  (  1.912607,  0.642248, -3.164157 )    24.03649717
  WF centre and spread    8  ( -2.152662,  1.155338, -2.934035 )    25.25510877
  WF centre and spread    9  (  0.719361,  0.824346,  0.804813 )    22.30060114
  WF centre and spread   10  ( -1.858223,  0.760800, -1.659480 )    32.16427382
  WF centre and spread   11  (  2.244993,  1.651933, -1.672686 )    27.64096431
  WF centre and spread   12  (  0.144824, -2.491554,  1.012430 )    29.29266488
  Sum of centres and spreads ( -0.839511,  8.628046,  1.884047 )   304.75823680
 
  11000    -0.805E-03     0.9031041711      304.7582367987      81.66  <-- CONV
        O_D=      9.6397590 O_OD=    103.1855086 O_TOT=    304.7582368 <-- SPRD
 Delta: O_D= -0.7590677E-03 O_OD= -0.4608108E-04 O_TOT= -0.8051488E-03 <-- DLTA
 ------------------------------------------------------------------------------

 done


 done


 done


 done


 done


 done


 done


 done


 done


 done

 Cycle:  12000
  WF centre and spread    1  (  2.255952,  1.022729,  2.688486 )    20.83517372
  WF centre and spread    2  ( -0.698063,  2.964619,  1.173788 )    23.47993440
  WF centre and spread    3  (  1.860875,  2.684510, -1.030576 )    24.38848225
  WF centre and spread    4  (  0.971369,  1.215300,  0.482664 )    23.95692064
  WF centre and spread    5  ( -2.057364, -0.851197,  1.841108 )    28.50826253
  WF centre and spread    6  ( -4.187562, -0.958244,  4.335062 )    22.79987354
  WF centre and spread    7  (  1.903977,  0.636734, -3.164173 )    24.05772966
  WF centre and spread    8  ( -2.150159,  1.154473, -2.936318 )    25.28266000
  WF centre and spread    9  (  0.719847,  0.821273,  0.806577 )    22.29461585
  WF centre and spread   10  ( -1.859031,  0.751943, -1.657333 )    32.15062681
  WF centre and spread   11  (  2.258253,  1.673635, -1.677316 )    27.63271853
  WF centre and spread   12  (  0.142222, -2.488876,  1.016200 )    29.28227774
  Sum of centres and spreads ( -0.839685,  8.626898,  1.878170 )   304.66927568
 
  12000     0.353E-02     4.1461144950      304.6692756805      88.57  <-- CONV
        O_D=      9.5962154 O_OD=    103.1400911 O_TOT=    304.6692757 <-- SPRD
 Delta: O_D=  0.3589309E-02 O_OD= -0.6237714E-04 O_TOT=  0.3526932E-02 <-- DLTA
 ------------------------------------------------------------------------------

 done


 done


 done


 done


 done


 done


 done


 done


 done


 done

 Cycle:  13000
  WF centre and spread    1  (  2.254358,  1.019917,  2.689487 )    20.84427890
  WF centre and spread    2  ( -0.697138,  2.962746,  1.177398 )    23.50856780
  WF centre and spread    3  (  1.852768,  2.686391, -1.032455 )    24.35747443
  WF centre and spread    4  (  0.973728,  1.209234,  0.480294 )    23.92095425
  WF centre and spread    5  ( -2.058488, -0.852074,  1.836498 )    28.50900303
  WF centre and spread    6  ( -4.186609, -0.958283,  4.336090 )    22.77892416
  WF centre and spread    7  (  1.890972,  0.629106, -3.163662 )    24.09003871
  WF centre and spread    8  ( -2.146490,  1.153082, -2.938981 )    25.33993635
  WF centre and spread    9  (  0.720647,  0.816409,  0.809782 )    22.31317413
  WF centre and spread   10  ( -1.860898,  0.738603, -1.649379 )    32.10477490
  WF centre and spread   11  (  2.279048,  1.704495, -1.684012 )    27.60193989
  WF centre and spread   12  (  0.137927, -2.483343,  1.020766 )    29.31897049
  Sum of centres and spreads ( -0.840175,  8.626283,  1.881825 )   304.68803704
 
  13000    -0.678E-03     2.0090279141      304.6880370399      95.51  <-- CONV
        O_D=      9.5770124 O_OD=    103.1780555 O_TOT=    304.6880370 <-- SPRD
 Delta: O_D= -0.5952049E-03 O_OD= -0.8286062E-04 O_TOT= -0.6780655E-03 <-- DLTA
 ------------------------------------------------------------------------------

 done


 done


 done


 done


 done


 done


 done


 done


 done


 done

 Cycle:  14000
  WF centre and spread    1  (  2.252664,  1.017242,  2.690471 )    20.84393603
  WF centre and spread    2  ( -0.696646,  2.960870,  1.179720 )    23.52486786
  WF centre and spread    3  (  1.842628,  2.687725, -1.034147 )    24.31451000
  WF centre and spread    4  (  0.975723,  1.201664,  0.476411 )    23.84343620
  WF centre and spread    5  ( -2.059786, -0.853923,  1.836578 )    28.50005561
  WF centre and spread    6  ( -4.185866, -0.957955,  4.336799 )    22.75617624
  WF centre and spread    7  (  1.877601,  0.622146, -3.163193 )    24.12593843
  WF centre and spread    8  ( -2.143137,  1.151518, -2.941858 )    25.37271136
  WF centre and spread    9  (  0.721390,  0.810832,  0.812337 )    22.31586524
  WF centre and spread   10  ( -1.861313,  0.725334, -1.651818 )    32.05795097
  WF centre and spread   11  (  2.301990,  1.737521, -1.692526 )    27.58514756
  WF centre and spread   12  (  0.133675, -2.481107,  1.027133 )    29.30437707
  Sum of centres and spreads ( -0.841076,  8.621869,  1.875907 )   304.54497259
 
  14000    -0.116E-03     0.5433918248      304.5449725867     102.44  <-- CONV
        O_D=      9.5239251 O_OD=    103.0880783 O_TOT=    304.5449726 <-- SPRD
 Delta: O_D= -0.8106543E-04 O_OD= -0.3525524E-04 O_TOT= -0.1163207E-03 <-- DLTA
 ------------------------------------------------------------------------------

 done


 done


 done


 done


 done


 done


 done


 done


 done


 done

 Cycle:  15000
  WF centre and spread    1  (  2.251424,  1.014222,  2.691553 )    20.84990636
  WF centre and spread    2  ( -0.695579,  2.958676,  1.183412 )    23.54658271
  WF centre and spread    3  (  1.831295,  2.688985, -1.034998 )    24.27207366
  WF centre and spread    4  (  0.977053,  1.195130,  0.473259 )    23.80344544
  WF centre and spread    5  ( -2.060578, -0.854423,  1.831438 )    28.50403196
  WF centre and spread    6  ( -4.185004, -0.958120,  4.337677 )    22.73701333
  WF centre and spread    7  (  1.864155,  0.616312, -3.162687 )    24.16198666
  WF centre and spread    8  ( -2.140355,  1.149369, -2.944259 )    25.41505939
  WF centre and spread    9  (  0.721965,  0.804843,  0.815215 )    22.33642596
  WF centre and spread   10  ( -1.861759,  0.713048, -1.647194 )    32.03395131
  WF centre and spread   11  (  2.325974,  1.769135, -1.701782 )    27.55735619
  WF centre and spread   12  (  0.129891, -2.477571,  1.033432 )    29.28236368
  Sum of centres and spreads ( -0.841519,  8.619606,  1.875064 )   304.50019664
 
  15000    -0.838E-03     0.2923830448      304.5001966439     109.55  <-- CONV
        O_D=      9.4917711 O_OD=    103.0754563 O_TOT=    304.5001966 <-- SPRD
 Delta: O_D=  0.4638820E-03 O_OD= -0.1302360E-02 O_TOT= -0.8384779E-03 <-- DLTA
 ------------------------------------------------------------------------------

 done


 done


 done


 done


 done


 done


 done


 done


 done


 done

 Cycle:  16000
  WF centre and spread    1  (  2.250672,  1.011857,  2.691934 )    20.86862402
  WF centre and spread    2  ( -0.694852,  2.957233,  1.185910 )    23.57229357
  WF centre and spread    3  (  1.822133,  2.689920, -1.035387 )    24.25421038
  WF centre and spread    4  (  0.978210,  1.190657,  0.471045 )    23.78178422
  WF centre and spread    5  ( -2.060714, -0.854739,  1.816817 )    28.79665502
  WF centre and spread    6  ( -4.184344, -0.958478,  4.338141 )    22.73960621
  WF centre and spread    7  (  1.854689,  0.612633, -3.162634 )    24.19647420
  WF centre and spread    8  ( -2.138481,  1.147436, -2.945789 )    25.44966731
  WF centre and spread    9  (  0.722105,  0.800196,  0.816902 )    22.37726612
  WF centre and spread   10  ( -1.862002,  0.704384, -1.643192 )    32.02003444
  WF centre and spread   11  (  2.343419,  1.791036, -1.709097 )    27.55615966
  WF centre and spread   12  (  0.127459, -2.472818,  1.036211 )    29.27143286
  Sum of centres and spreads ( -0.841706,  8.619317,  1.860861 )   304.88420801
 
  16000    -0.734E-03     1.4610467779      304.8842080110     116.63  <-- CONV
        O_D=      9.7035949 O_OD=    103.2476439 O_TOT=    304.8842080 <-- SPRD
 Delta: O_D= -0.5482669E-03 O_OD= -0.1852624E-03 O_TOT= -0.7335293E-03 <-- DLTA
 ------------------------------------------------------------------------------

 done


 done


 done


 done


 done


 done


 done


 done


 done


 done

 Cycle:  17000
  WF centre and spread    1  (  2.250257,  1.011034,  2.692572 )    20.84863694
  WF centre and spread    2  ( -0.694686,  2.956540,  1.186633 )    23.57009677
  WF centre and spread    3  (  1.817168,  2.690364, -1.035024 )    24.21836418
  WF centre and spread    4  (  0.978761,  1.187942,  0.470039 )    23.74012871
  WF centre and spread    5  ( -2.061314, -0.854938,  1.829534 )    28.51177302
  WF centre and spread    6  ( -4.184226, -0.958261,  4.338688 )    22.71526947
  WF centre and spread    7  (  1.850293,  0.611209, -3.162489 )    24.19699043
  WF centre and spread    8  ( -2.138034,  1.146813, -2.946168 )    25.45378245
  WF centre and spread    9  (  0.722596,  0.798282,  0.818093 )    22.35481146
  WF centre and spread   10  ( -1.861438,  0.700219, -1.643175 )    32.01769510
  WF centre and spread   11  (  2.352250,  1.802799, -1.712630 )    27.52072201
  WF centre and spread   12  (  0.126282, -2.473865,  1.038537 )    29.28110935
  Sum of centres and spreads ( -0.842090,  8.618139,  1.874610 )   304.42937990
 
  17000    -0.979E-05     0.4160773254      304.4293798987     123.73  <-- CONV
        O_D=      9.4721184 O_OD=    103.0242923 O_TOT=    304.4293799 <-- SPRD
 Delta: O_D=  0.4776878E-05 O_OD= -0.1456611E-04 O_TOT= -0.9789235E-05 <-- DLTA
 ------------------------------------------------------------------------------

 done


 done


 done


 done


 done


 done


 done


 done


 done


 done

 Cycle:  18000
  WF centre and spread    1  (  2.249857,  1.009588,  2.693054 )    20.84966851
  WF centre and spread    2  ( -0.694265,  2.955559,  1.188160 )    23.58427586
  WF centre and spread    3  (  1.809616,  2.690819, -1.034765 )    24.19642968
  WF centre and spread    4  (  0.979502,  1.184594,  0.468467 )    23.73348069
  WF centre and spread    5  ( -2.061608, -0.855256,  1.828422 )    28.51288542
  WF centre and spread    6  ( -4.183879, -0.958253,  4.339139 )    22.70721003
  WF centre and spread    7  (  1.843797,  0.609204, -3.162339 )    24.21634163
  WF centre and spread    8  ( -2.137196,  1.145576, -2.946831 )    25.47642820
  WF centre and spread    9  (  0.722875,  0.794920,  0.819367 )    22.37318128
  WF centre and spread   10  ( -1.861354,  0.694090, -1.643152 )    32.00251903
  WF centre and spread   11  (  2.365421,  1.818936, -1.718419 )    27.51457001
  WF centre and spread   12  (  0.124984, -2.471306,  1.041541 )    29.26828260
  Sum of centres and spreads ( -0.842249,  8.618470,  1.872646 )   304.43527296
 
  18000    -0.910E-02     0.9573002178      304.4352729650     130.66  <-- CONV
        O_D=      9.4570931 O_OD=    103.0452107 O_TOT=    304.4352730 <-- SPRD
 Delta: O_D= -0.9392257E-02 O_OD=  0.2928714E-03 O_TOT= -0.9099385E-02 <-- DLTA
 ------------------------------------------------------------------------------

 done


 done


 done


 done


 done


 done


 done


 done


 done


 done

 Cycle:  19000
  WF centre and spread    1  (  2.249543,  1.008759,  2.693440 )    20.84886080
  WF centre and spread    2  ( -0.694020,  2.954750,  1.189567 )    23.59285336
  WF centre and spread    3  (  1.803559,  2.691119, -1.034576 )    24.17759985
  WF centre and spread    4  (  0.979979,  1.182014,  0.467434 )    23.72220707
  WF centre and spread    5  ( -2.061893, -0.855330,  1.828061 )    28.51185071
  WF centre and spread    6  ( -4.183522, -0.958155,  4.339640 )    22.69854506
  WF centre and spread    7  (  1.839069,  0.607782, -3.162147 )    24.22853847
  WF centre and spread    8  ( -2.136406,  1.144822, -2.947294 )    25.49190269
  WF centre and spread    9  (  0.722971,  0.792345,  0.820348 )    22.38017149
  WF centre and spread   10  ( -1.861042,  0.689885, -1.640201 )    31.98917058
  WF centre and spread   11  (  2.375469,  1.831068, -1.722740 )    27.49802434
  WF centre and spread   12  (  0.123852, -2.472693,  1.043001 )    29.26115642
  Sum of centres and spreads ( -0.842440,  8.616367,  1.874533 )   304.40088085
 
  19000    -0.363E-03     2.9789066565      304.4008808483     137.55  <-- CONV
        O_D=      9.4463515 O_OD=    103.0215602 O_TOT=    304.4008808 <-- SPRD
 Delta: O_D= -0.3041337E-03 O_OD= -0.5902237E-04 O_TOT= -0.3631560E-03 <-- DLTA
 ------------------------------------------------------------------------------

 done


 done


 done


 done


 done


 done


 done


 done


 done


 done

 Cycle:  20000
  WF centre and spread    1  (  2.249268,  1.007933,  2.693856 )    20.84769461
  WF centre and spread    2  ( -0.693791,  2.953985,  1.190603 )    23.59899003
  WF centre and spread    3  (  1.797865,  2.691305, -1.034312 )    24.15827738
  WF centre and spread    4  (  0.980199,  1.179359,  0.466400 )    23.70136022
  WF centre and spread    5  ( -2.061995, -0.855414,  1.826682 )    28.51319695
  WF centre and spread    6  ( -4.183302, -0.958099,  4.340019 )    22.69164092
  WF centre and spread    7  (  1.834877,  0.606723, -3.162032 )    24.23983774
  WF centre and spread    8  ( -2.136009,  1.144036, -2.947676 )    25.50146808
  WF centre and spread    9  (  0.723068,  0.789904,  0.821167 )    22.38647070
  WF centre and spread   10  ( -1.860407,  0.686336, -1.640328 )    31.99474692
  WF centre and spread   11  (  2.384656,  1.842257, -1.726960 )    27.49152641
  WF centre and spread   12  (  0.123055, -2.472822,  1.044965 )    29.24806137
  Sum of centres and spreads ( -0.842516,  8.615503,  1.872385 )   304.37327134
 
  20000    -0.318E-04     0.4720680939      304.3732713380     144.48  <-- CONV
        O_D=      9.4364434 O_OD=    103.0038588 O_TOT=    304.3732713 <-- SPRD
 Delta: O_D= -0.1645532E-04 O_OD= -0.1532469E-04 O_TOT= -0.3178000E-04 <-- DLTA
 ------------------------------------------------------------------------------

 done


 done


 done


 done


 done


 done


 done


 done


 done


 done

 Cycle:  21000
  WF centre and spread    1  (  2.249076,  1.007087,  2.694197 )    20.84556513
  WF centre and spread    2  ( -0.693517,  2.953310,  1.191556 )    23.60825386
  WF centre and spread    3  (  1.791951,  2.691470, -1.033896 )    24.13839863
  WF centre and spread    4  (  0.980633,  1.177182,  0.465345 )    23.69573861
  WF centre and spread    5  ( -2.062229, -0.855515,  1.826889 )    28.51700083
  WF centre and spread    6  ( -4.183171, -0.958153,  4.340147 )    22.68602552
  WF centre and spread    7  (  1.830780,  0.605859, -3.162004 )    24.25051616
  WF centre and spread    8  ( -2.135687,  1.143136, -2.947982 )    25.51346032
  WF centre and spread    9  (  0.723221,  0.787488,  0.822045 )    22.39848498
  WF centre and spread   10  ( -1.859999,  0.682643, -1.639457 )    31.98885235
  WF centre and spread   11  (  2.393958,  1.852692, -1.731117 )    27.48338389
  WF centre and spread   12  (  0.122321, -2.472460,  1.045280 )    29.24187013
  Sum of centres and spreads ( -0.842665,  8.614740,  1.871004 )   304.36755041
 
  21000    -0.274E-03     0.5852989281      304.3675504128     151.52  <-- CONV
        O_D=      9.4307775 O_OD=    103.0038037 O_TOT=    304.3675504 <-- SPRD
 Delta: O_D=  0.9425561E-04 O_OD= -0.3681693E-03 O_TOT= -0.2739137E-03 <-- DLTA
 ------------------------------------------------------------------------------

 done


 done


 done


 done


 done


 done


 done


 done


 done


 done

 Cycle:  22000
  WF centre and spread    1  (  2.248974,  1.006105,  2.694565 )    20.84416437
  WF centre and spread    2  ( -0.693160,  2.952553,  1.192661 )    23.61804756
  WF centre and spread    3  (  1.784988,  2.691566, -1.033401 )    24.11835521
  WF centre and spread    4  (  0.981026,  1.174567,  0.464281 )    23.69419093
  WF centre and spread    5  ( -2.062523, -0.855605,  1.825979 )    28.51953423
  WF centre and spread    6  ( -4.183014, -0.958150,  4.340444 )    22.67975351
  WF centre and spread    7  (  1.826121,  0.605040, -3.161972 )    24.26471845
  WF centre and spread    8  ( -2.135392,  1.142092, -2.948297 )    25.52755303
  WF centre and spread    9  (  0.723361,  0.784585,  0.822923 )    22.41174319
  WF centre and spread   10  ( -1.859364,  0.678124, -1.639101 )    31.99008372
  WF centre and spread   11  (  2.404868,  1.865292, -1.735866 )    27.47071058
  WF centre and spread   12  (  0.121319, -2.472087,  1.049335 )    29.21362947
  Sum of centres and spreads ( -0.842797,  8.614082,  1.871550 )   304.35248424
 
  22000    -0.152E-02     0.6853084070      304.3524842363     158.65  <-- CONV
        O_D=      9.4195451 O_OD=    102.9999700 O_TOT=    304.3524842 <-- SPRD
 Delta: O_D= -0.7216404E-03 O_OD= -0.8006674E-03 O_TOT= -0.1522308E-02 <-- DLTA
 ------------------------------------------------------------------------------

 done


 done


 done


 done


 done


 done


 done


 done


 done


 done

 Cycle:  23000
  WF centre and spread    1  (  2.249029,  1.004887,  2.694943 )    20.84433025
  WF centre and spread    2  ( -0.692775,  2.951797,  1.194120 )    23.63298492
  WF centre and spread    3  (  1.776411,  2.691544, -1.032404 )    24.10069996
  WF centre and spread    4  (  0.981962,  1.172497,  0.462457 )    23.71936402
  WF centre and spread    5  ( -2.062931, -0.855943,  1.827811 )    28.52439849
  WF centre and spread    6  ( -4.182674, -0.958565,  4.340679 )    22.67505103
  WF centre and spread    7  (  1.820635,  0.603910, -3.162079 )    24.28041423
  WF centre and spread    8  ( -2.134985,  1.140483, -2.948475 )    25.54774431
  WF centre and spread    9  (  0.723827,  0.780951,  0.824355 )    22.45459852
  WF centre and spread   10  ( -1.859134,  0.672626, -1.639523 )    31.96759451
  WF centre and spread   11  (  2.417330,  1.876515, -1.741630 )    27.44778903
  WF centre and spread   12  (  0.119731, -2.466999,  1.051443 )    29.17315380
  Sum of centres and spreads ( -0.843574,  8.613705,  1.871697 )   304.36812306
 
  23000    -0.163E-01     0.8285153117      304.3681230637     165.80  <-- CONV
        O_D=      9.4116174 O_OD=    103.0235364 O_TOT=    304.3681231 <-- SPRD
 Delta: O_D= -0.1379915E-01 O_OD= -0.2520334E-02 O_TOT= -0.1631948E-01 <-- DLTA
 ------------------------------------------------------------------------------

 done


 done


 done


 done


 done


 done

